/*--------------------------------*- C++ -*----------------------------------*\
| =========                 |                                                 |
| \\      /  F ield         | OpenFOAM: The Open Source CFD Toolbox           |
|  \\    /   O peration     | Version:  2412                                  |
|   \\  /    A nd           | Website:  www.openfoam.com                      |
|    \\/     M anipulation  |                                                 |
\*---------------------------------------------------------------------------*/
FoamFile
{
    version     2.0;
    format      ascii;
    arch        "LSB;label=32;scalar=64";
    class       volScalarField;
    location    "0.023";
    object      T;
}
// * * * * * * * * * * * * * * * * * * * * * * * * * * * * * * * * * * * * * //

dimensions      [0 0 0 1 0 0 0];

internalField   nonuniform List<scalar> 
9922
(
238.563
226.786
226.958
227.103
227.06
226.946
226.755
226.512
226.13
225.505
224.602
223.53
222.272
221.175
220.495
220.185
220.104
220.117
220.167
220.217
220.225
220.182
220.08
219.944
219.793
219.634
219.475
219.309
219.125
218.915
218.68
218.427
218.157
217.868
217.557
217.224
216.868
216.486
216.074
215.631
215.156
214.647
214.101
213.513
212.88
212.201
211.473
210.692
209.852
208.949
207.975
206.924
205.787
204.553
203.228
201.792
200.3
198.701
197.076
195.445
193.873
192.402
191.035
189.77
188.633
187.605
186.673
185.812
185.015
184.275
183.569
182.865
182.169
181.505
180.878
180.288
179.736
179.229
178.766
178.345
177.965
177.619
177.306
177.015
176.745
176.487
176.243
176.007
175.781
175.561
175.348
175.141
174.942
174.751
174.568
174.394
174.228
174.069
173.917
173.77
173.627
173.489
173.356
173.227
173.099
172.97
172.834
172.691
172.545
172.408
172.294
172.22
172.184
172.178
172.197
172.246
172.328
172.415
172.487
172.521
172.457
238.528
226.779
226.948
227.093
227.052
226.937
226.743
226.494
226.107
225.484
224.589
223.534
222.292
221.195
220.504
220.182
220.095
220.104
220.152
220.206
220.218
220.178
220.079
219.943
219.789
219.63
219.471
219.305
219.121
218.911
218.676
218.422
218.151
217.861
217.549
217.215
216.858
216.474
216.06
215.614
215.135
214.622
214.071
213.477
212.838
212.151
211.414
210.622
209.769
208.85
207.859
206.789
205.631
204.381
203.019
201.61
200.062
198.536
196.88
195.291
193.757
192.31
190.972
189.758
188.639
187.608
186.667
185.812
185.016
184.255
183.51
182.776
182.085
181.432
180.802
180.204
179.649
179.148
178.701
178.301
177.943
177.613
177.309
177.022
176.753
176.496
176.25
176.013
175.786
175.566
175.353
175.147
174.95
174.759
174.574
174.395
174.22
174.05
173.884
173.723
173.568
173.421
173.285
173.156
173.032
172.908
172.779
172.643
172.502
172.37
172.26
172.189
172.156
172.152
172.173
172.225
172.308
172.397
172.471
172.509
172.449
238.491
226.772
226.939
227.083
227.043
226.928
226.73
226.476
226.084
225.461
224.576
223.537
222.312
221.216
220.514
220.18
220.085
220.09
220.138
220.195
220.21
220.174
220.079
219.942
219.787
219.626
219.466
219.3
219.117
218.908
218.672
218.417
218.146
217.855
217.542
217.207
216.848
216.462
216.046
215.597
215.116
214.599
214.044
213.445
212.799
212.105
211.359
210.556
209.692
208.76
207.754
206.668
205.494
204.23
202.868
201.434
199.924
198.368
196.788
195.229
193.734
192.312
190.975
189.739
188.613
187.601
186.674
185.803
184.976
184.189
183.442
182.743
182.058
181.389
180.751
180.16
179.619
179.129
178.689
178.288
177.922
177.579
177.265
176.972
176.702
176.446
176.203
175.969
175.744
175.524
175.309
175.099
174.895
174.698
174.506
174.322
174.147
173.98
173.822
173.671
173.53
173.397
173.271
173.151
173.033
172.913
172.786
172.652
172.511
172.377
172.264
172.189
172.154
172.148
172.167
172.218
172.299
172.387
172.457
172.491
172.43
238.451
226.765
226.929
227.072
227.035
226.919
226.717
226.457
226.06
225.438
224.562
223.541
222.333
221.239
220.526
220.178
220.075
220.076
220.122
220.183
220.201
220.17
220.078
219.941
219.784
219.623
219.462
219.296
219.113
218.904
218.668
218.412
218.14
217.849
217.536
217.2
216.839
216.451
216.032
215.582
215.097
214.578
214.018
213.414
212.763
212.062
211.308
210.497
209.622
208.679
207.661
206.562
205.374
204.092
202.745
201.277
199.823
198.236
196.712
195.188
193.711
192.306
190.977
189.729
188.601
187.576
186.635
185.761
184.943
184.161
183.4
182.665
181.947
181.264
180.628
180.047
179.517
179.038
178.606
178.212
177.856
177.529
177.23
176.947
176.68
176.42
176.169
175.927
175.695
175.471
175.256
175.048
174.849
174.658
174.476
174.301
174.134
173.973
173.816
173.663
173.514
173.372
173.235
173.103
172.975
172.847
172.713
172.573
172.426
172.286
172.165
172.083
172.041
172.032
172.049
172.098
172.18
172.271
172.342
172.377
172.315
238.409
226.759
226.921
227.062
227.026
226.91
226.704
226.437
226.035
225.413
224.547
223.543
222.355
221.263
220.539
220.177
220.064
220.061
220.107
220.171
220.192
220.166
220.078
219.941
219.782
219.619
219.457
219.291
219.109
218.9
218.664
218.408
218.135
217.843
217.529
217.192
216.83
216.44
216.02
215.567
215.081
214.558
213.995
213.386
212.73
212.023
211.262
210.443
209.559
208.607
207.579
206.468
205.272
203.985
202.623
201.198
199.704
198.189
196.637
195.132
193.675
192.293
191.004
189.813
188.698
187.655
186.698
185.821
184.989
184.184
183.394
182.609
181.888
181.22
180.596
180.019
179.49
179.018
178.595
178.213
177.867
177.543
177.241
176.954
176.682
176.422
176.173
175.932
175.699
175.473
175.255
175.044
174.84
174.641
174.446
174.258
174.076
173.9
173.731
173.569
173.416
173.273
173.137
173.01
172.889
172.768
172.643
172.51
172.369
172.232
172.113
172.031
171.99
171.983
172.003
172.056
172.142
172.238
172.315
172.356
172.297
238.364
226.754
226.912
227.052
227.018
226.9
226.69
226.416
226.009
225.387
224.531
223.546
222.379
221.289
220.554
220.177
220.054
220.046
220.091
220.158
220.182
220.161
220.078
219.941
219.78
219.616
219.453
219.287
219.105
218.896
218.66
218.403
218.131
217.838
217.524
217.186
216.822
216.431
216.009
215.554
215.065
214.54
213.973
213.361
212.699
211.987
211.22
210.394
209.504
208.544
207.507
206.389
205.186
203.906
202.53
201.145
199.637
198.165
196.635
195.152
193.734
192.385
191.103
189.898
188.768
187.722
186.75
185.836
184.959
184.126
183.338
182.602
181.882
181.198
180.561
179.983
179.459
178.993
178.571
178.187
177.833
177.503
177.195
176.903
176.627
176.363
176.11
175.867
175.632
175.403
175.18
174.963
174.752
174.55
174.357
174.175
174.002
173.838
173.682
173.532
173.39
173.254
173.123
172.999
172.879
172.758
172.632
172.496
172.353
172.213
172.089
172.004
171.96
171.951
171.969
172.02
172.104
172.198
172.274
172.312
172.251
238.318
226.75
226.904
227.042
227.009
226.891
226.676
226.395
225.981
225.36
224.515
223.549
222.403
221.316
220.57
220.178
220.044
220.032
220.075
220.144
220.171
220.155
220.078
219.941
219.779
219.613
219.449
219.283
219.101
218.892
218.656
218.4
218.127
217.834
217.518
217.179
216.814
216.422
215.998
215.542
215.051
214.523
213.954
213.338
212.672
211.954
211.183
210.352
209.456
208.489
207.447
206.324
205.121
203.844
202.5
201.078
199.646
198.134
196.671
195.223
193.827
192.492
191.216
189.983
188.828
187.762
186.769
185.84
184.968
184.132
183.312
182.526
181.786
181.1
180.472
179.909
179.398
178.943
178.53
178.156
177.814
177.496
177.197
176.91
176.633
176.362
176.102
175.849
175.607
175.373
175.15
174.937
174.733
174.538
174.352
174.173
173.998
173.826
173.658
173.496
173.341
173.193
173.053
172.922
172.796
172.672
172.542
172.406
172.262
172.123
172.001
171.918
171.876
171.868
171.888
171.942
172.031
172.131
172.21
172.25
172.194
238.268
226.746
226.896
227.032
227.001
226.881
226.662
226.372
225.952
225.332
224.497
223.551
222.427
221.345
220.588
220.18
220.035
220.018
220.059
220.13
220.16
220.149
220.078
219.942
219.777
219.609
219.445
219.278
219.097
218.888
218.652
218.396
218.123
217.829
217.513
217.173
216.807
216.413
215.989
215.531
215.038
214.508
213.936
213.316
212.647
211.926
211.15
210.315
209.414
208.443
207.397
206.272
205.071
203.794
202.472
201.048
199.635
198.148
196.689
195.265
193.882
192.555
191.292
190.103
188.974
187.902
186.892
185.943
185.043
184.174
183.335
182.524
181.776
181.098
180.48
179.924
179.417
178.964
178.552
178.178
177.83
177.501
177.189
176.892
176.61
176.341
176.086
175.839
175.6
175.365
175.139
174.917
174.704
174.496
174.297
174.105
173.92
173.743
173.577
173.42
173.273
173.134
173.004
172.883
172.766
172.649
172.527
172.396
172.257
172.121
172.002
171.921
171.882
171.877
171.898
171.957
172.049
172.152
172.233
172.272
172.21
238.217
226.743
226.889
227.023
226.992
226.87
226.646
226.349
225.922
225.302
224.479
223.553
222.453
221.375
220.607
220.184
220.027
220.003
220.042
220.114
220.149
220.143
220.078
219.943
219.776
219.606
219.441
219.274
219.093
218.885
218.649
218.393
218.12
217.826
217.509
217.168
216.801
216.406
215.98
215.521
215.027
214.494
213.92
213.298
212.625
211.901
211.122
210.283
209.38
208.405
207.357
206.233
205.036
203.767
202.429
201.07
199.611
198.198
196.747
195.346
193.994
192.687
191.425
190.228
189.096
188.017
186.988
185.998
185.045
184.14
183.295
182.512
181.767
181.076
180.444
179.882
179.378
178.929
178.521
178.145
177.795
177.465
177.155
176.859
176.575
176.299
176.035
175.778
175.531
175.293
175.064
174.844
174.636
174.437
174.25
174.072
173.901
173.738
173.582
173.431
173.284
173.144
173.01
172.884
172.762
172.64
172.513
172.378
172.235
172.095
171.972
171.887
171.844
171.835
171.856
171.913
172.006
172.11
172.194
172.237
172.178
238.161
226.74
226.882
227.013
226.984
226.86
226.631
226.324
225.891
225.271
224.46
223.554
222.478
221.407
220.629
220.189
220.019
219.989
220.025
220.098
220.138
220.137
220.077
219.943
219.775
219.604
219.437
219.27
219.089
218.881
218.646
218.391
218.117
217.823
217.505
217.163
216.795
216.399
215.973
215.512
215.016
214.482
213.905
213.281
212.606
211.879
211.098
210.258
209.352
208.376
207.327
206.206
205.015
203.756
202.424
201.075
199.656
198.24
196.853
195.485
194.154
192.861
191.609
190.377
189.204
188.102
187.053
186.05
185.095
184.186
183.311
182.48
181.717
181.032
180.418
179.874
179.384
178.942
178.537
178.163
177.816
177.488
177.178
176.879
176.593
176.316
176.047
175.784
175.533
175.292
175.065
174.848
174.642
174.443
174.251
174.064
173.883
173.709
173.54
173.377
173.22
173.073
172.935
172.805
172.681
172.56
172.434
172.301
172.16
172.021
171.899
171.815
171.774
171.768
171.791
171.854
171.952
172.062
172.15
172.196
172.142
238.103
226.738
226.876
227.004
226.976
226.849
226.614
226.299
225.858
225.238
224.44
223.555
222.504
221.44
220.653
220.195
220.011
219.975
220.007
220.08
220.126
220.131
220.075
219.944
219.775
219.601
219.433
219.266
219.085
218.878
218.644
218.389
218.115
217.82
217.501
217.158
216.79
216.394
215.966
215.504
215.007
214.472
213.893
213.267
212.59
211.862
211.08
210.237
209.33
208.354
207.307
206.191
205.009
203.763
202.469
201.086
199.736
198.317
196.948
195.595
194.267
192.978
191.739
190.553
189.4
188.29
187.225
186.2
185.21
184.26
183.367
182.534
181.765
181.074
180.453
179.899
179.404
178.958
178.55
178.168
177.813
177.472
177.151
176.841
176.55
176.268
176
175.74
175.491
175.25
175.018
174.793
174.578
174.37
174.173
173.984
173.808
173.641
173.481
173.325
173.177
173.037
172.906
172.78
172.66
172.541
172.417
172.285
172.143
172.004
171.881
171.796
171.754
171.748
171.769
171.831
171.929
172.04
172.126
172.168
172.108
238.04
226.737
226.87
226.995
226.968
226.838
226.597
226.272
225.824
225.205
224.418
223.555
222.531
221.475
220.678
220.203
220.003
219.96
219.989
220.061
220.114
220.123
220.072
219.945
219.776
219.599
219.429
219.261
219.081
218.875
218.642
218.387
218.113
217.818
217.498
217.155
216.786
216.389
215.96
215.498
214.999
214.463
213.883
213.255
212.578
211.848
211.065
210.222
209.314
208.339
207.296
206.189
205.016
203.78
202.498
201.157
199.789
198.435
197.061
195.72
194.412
193.136
191.892
190.704
189.559
188.443
187.352
186.284
185.248
184.264
183.349
182.513
181.747
181.05
180.423
179.871
179.382
178.941
178.538
178.159
177.809
177.472
177.153
176.842
176.546
176.255
175.975
175.703
175.445
175.2
174.97
174.75
174.542
174.343
174.154
173.973
173.799
173.63
173.462
173.299
173.142
172.994
172.853
172.719
172.591
172.466
172.338
172.203
172.059
171.916
171.789
171.702
171.658
171.65
171.671
171.733
171.833
171.949
172.039
172.084
172.029
237.976
226.735
226.865
226.986
226.96
226.826
226.579
226.245
225.788
225.169
224.396
223.555
222.558
221.512
220.706
220.212
219.996
219.946
219.97
220.041
220.1
220.115
220.069
219.947
219.776
219.596
219.425
219.257
219.077
218.872
218.64
218.386
218.112
217.816
217.496
217.152
216.783
216.385
215.956
215.493
214.993
214.455
213.874
213.246
212.568
211.838
211.055
210.212
209.305
208.333
207.297
206.196
205.031
203.804
202.515
201.23
199.858
198.535
197.212
195.904
194.62
193.36
192.122
190.89
189.705
188.566
187.456
186.38
185.349
184.363
183.427
182.555
181.769
181.075
180.462
179.922
179.438
178.999
178.592
178.207
177.844
177.491
177.159
176.84
176.539
176.249
175.972
175.704
175.449
175.204
174.97
174.744
174.527
174.316
174.111
173.915
173.727
173.545
173.371
173.207
173.055
172.912
172.777
172.649
172.528
172.41
172.29
172.16
172.021
171.881
171.757
171.671
171.628
171.623
171.647
171.713
171.818
171.938
172.03
172.077
172.02
237.906
226.735
226.86
226.978
226.952
226.815
226.561
226.216
225.751
225.133
224.373
223.554
222.586
221.55
220.736
220.224
219.991
219.932
219.952
220.02
220.086
220.105
220.065
219.948
219.777
219.595
219.421
219.253
219.073
218.869
218.638
218.385
218.111
217.814
217.494
217.15
216.78
216.383
215.953
215.488
214.989
214.45
213.869
213.24
212.562
211.832
211.048
210.205
209.302
208.336
207.306
206.213
205.057
203.84
202.573
201.275
199.974
198.634
197.344
196.058
194.781
193.527
192.309
191.122
189.946
188.795
187.67
186.571
185.501
184.476
183.52
182.646
181.855
181.149
180.519
179.958
179.457
179.005
178.588
178.193
177.821
177.463
177.129
176.806
176.498
176.198
175.912
175.64
175.383
175.137
174.899
174.671
174.453
174.247
174.052
173.866
173.688
173.517
173.354
173.201
173.054
172.912
172.775
172.645
172.521
172.401
172.276
172.143
171.999
171.855
171.724
171.631
171.582
171.572
171.592
171.653
171.752
171.867
171.956
172.001
171.943
237.834
226.734
226.855
226.969
226.945
226.803
226.541
226.185
225.712
225.095
224.349
223.553
222.614
221.589
220.768
220.238
219.986
219.918
219.933
219.999
220.07
220.095
220.061
219.951
219.779
219.594
219.418
219.249
219.069
218.866
218.636
218.383
218.11
217.813
217.493
217.149
216.779
216.381
215.95
215.486
214.985
214.446
213.864
213.236
212.558
211.829
211.046
210.207
209.306
208.345
207.322
206.239
205.093
203.896
202.659
201.368
200.093
198.79
197.489
196.208
194.946
193.703
192.479
191.295
190.134
188.978
187.827
186.684
185.572
184.522
183.551
182.665
181.87
181.161
180.529
179.972
179.473
179.026
178.613
178.225
177.855
177.499
177.162
176.834
176.519
176.213
175.92
175.64
175.378
175.129
174.893
174.669
174.456
174.252
174.054
173.862
173.673
173.491
173.318
173.154
172.995
172.842
172.697
172.562
172.436
172.313
172.188
172.054
171.912
171.768
171.638
171.546
171.499
171.492
171.516
171.582
171.685
171.806
171.9
171.951
171.899
237.757
226.735
226.851
226.961
226.937
226.79
226.521
226.153
225.672
225.056
224.324
223.552
222.643
221.631
220.803
220.255
219.984
219.904
219.914
219.976
220.054
220.083
220.056
219.953
219.782
219.593
219.415
219.245
219.066
218.864
218.635
218.382
218.108
217.813
217.493
217.148
216.779
216.38
215.949
215.484
214.984
214.445
213.864
213.236
212.558
211.83
211.049
210.212
209.316
208.362
207.347
206.272
205.139
203.956
202.735
201.503
200.208
198.959
197.689
196.429
195.186
193.957
192.734
191.509
190.31
189.131
187.963
186.818
185.719
184.675
183.695
182.79
181.976
181.26
180.629
180.069
179.561
179.098
178.667
178.259
177.87
177.497
177.146
176.807
176.485
176.177
175.888
175.613
175.353
175.103
174.861
174.628
174.403
174.187
173.981
173.783
173.594
173.416
173.25
173.093
172.939
172.79
172.651
172.523
172.403
172.284
172.161
172.03
171.89
171.748
171.618
171.524
171.475
171.466
171.486
171.547
171.647
171.764
171.854
171.901
171.841
237.676
226.736
226.848
226.954
226.93
226.777
226.499
226.12
225.63
225.015
224.298
223.55
222.671
221.673
220.84
220.274
219.982
219.89
219.894
219.953
220.036
220.071
220.05
219.956
219.786
219.593
219.412
219.241
219.062
218.861
218.633
218.38
218.107
217.812
217.493
217.149
216.779
216.381
215.95
215.485
214.985
214.447
213.866
213.238
212.561
211.835
211.056
210.223
209.333
208.386
207.379
206.313
205.191
204.02
202.812
201.603
200.352
199.094
197.864
196.628
195.393
194.172
192.97
191.779
190.583
189.391
188.209
187.046
185.91
184.823
183.815
182.9
182.08
181.351
180.701
180.119
179.59
179.111
178.664
178.253
177.868
177.503
177.151
176.806
176.476
176.159
175.86
175.577
175.31
175.056
174.814
174.584
174.364
174.155
173.956
173.765
173.582
173.406
173.237
173.072
172.907
172.75
172.604
172.469
172.341
172.215
172.087
171.951
171.806
171.659
171.524
171.425
171.369
171.356
171.374
171.437
171.54
171.662
171.757
171.808
171.754
237.591
226.737
226.845
226.947
226.923
226.764
226.477
226.085
225.586
224.972
224.27
223.547
222.7
221.717
220.88
220.296
219.983
219.876
219.873
219.929
220.017
220.057
220.044
219.958
219.79
219.594
219.409
219.237
219.059
218.859
218.631
218.379
218.106
217.812
217.493
217.15
216.781
216.382
215.951
215.487
214.987
214.449
213.869
213.242
212.567
211.843
211.067
210.239
209.356
208.416
207.418
206.363
205.253
204.098
202.911
201.7
200.505
199.247
198.018
196.796
195.576
194.364
193.161
191.976
190.794
189.602
188.4
187.197
186.022
184.918
183.903
182.977
182.147
181.41
180.759
180.181
179.657
179.182
178.735
178.323
177.926
177.539
177.168
176.812
176.481
176.167
175.874
175.593
175.325
175.066
174.82
174.583
174.353
174.131
173.917
173.713
173.517
173.331
173.153
172.98
172.814
172.661
172.522
172.392
172.266
172.144
172.019
171.889
171.748
171.605
171.471
171.371
171.316
171.306
171.328
171.393
171.498
171.621
171.715
171.764
171.703
237.5
226.739
226.842
226.94
226.916
226.75
226.453
226.049
225.54
224.928
224.242
223.544
222.729
221.763
220.922
220.321
219.985
219.862
219.852
219.905
219.996
220.044
220.038
219.959
219.794
219.595
219.407
219.233
219.055
218.856
218.629
218.377
218.105
217.812
217.494
217.152
216.783
216.384
215.954
215.49
214.991
214.454
213.874
213.249
212.576
211.854
211.083
210.261
209.384
208.452
207.463
206.419
205.324
204.188
203.026
201.847
200.644
199.447
198.232
197.028
195.83
194.635
193.432
192.213
190.995
189.779
188.562
187.363
186.216
185.131
184.114
183.175
182.328
181.574
180.907
180.31
179.763
179.26
178.786
178.344
177.919
177.519
177.143
176.786
176.451
176.133
175.836
175.549
175.273
175.008
174.754
174.511
174.279
174.06
173.854
173.659
173.475
173.299
173.126
172.958
172.799
172.652
172.511
172.374
172.241
172.112
171.982
171.846
171.699
171.548
171.405
171.296
171.234
171.217
171.233
171.292
171.391
171.514
171.609
171.659
171.602
237.405
226.74
226.84
226.934
226.909
226.735
226.428
226.01
225.493
224.882
224.213
223.541
222.759
221.81
220.967
220.348
219.989
219.85
219.831
219.879
219.973
220.03
220.031
219.96
219.798
219.597
219.406
219.23
219.052
218.854
218.627
218.375
218.105
217.812
217.496
217.154
216.785
216.387
215.957
215.494
214.996
214.46
213.882
213.258
212.587
211.87
211.104
210.288
209.418
208.495
207.515
206.481
205.399
204.284
203.151
202.009
200.816
199.637
198.456
197.266
196.076
194.889
193.704
192.509
191.293
190.064
188.836
187.624
186.44
185.31
184.263
183.309
182.452
181.682
180.993
180.372
179.807
179.292
178.811
178.373
177.958
177.567
177.19
176.828
176.489
176.164
175.857
175.556
175.271
175
174.747
174.506
174.279
174.063
173.854
173.653
173.458
173.268
173.082
172.902
172.735
172.578
172.425
172.278
172.14
172.01
171.883
171.751
171.608
171.459
171.317
171.209
171.148
171.133
171.152
171.215
171.321
171.451
171.552
171.608
171.552
237.304
226.742
226.838
226.928
226.902
226.72
226.401
225.969
225.443
224.835
224.183
223.538
222.79
221.859
221.015
220.379
219.996
219.837
219.811
219.854
219.949
220.015
220.023
219.959
219.803
219.6
219.405
219.227
219.049
218.851
218.625
218.374
218.104
217.813
217.498
217.157
216.789
216.391
215.962
215.5
215.003
214.469
213.892
213.27
212.603
211.889
211.128
210.319
209.458
208.542
207.572
206.55
205.484
204.39
203.275
202.145
201.009
199.812
198.641
197.463
196.284
195.102
193.916
192.725
191.521
190.297
189.055
187.809
186.592
185.455
184.413
183.458
182.591
181.81
181.112
180.49
179.924
179.407
178.916
178.457
178.011
177.589
177.188
176.816
176.47
176.141
175.83
175.53
175.246
174.972
174.714
174.466
174.229
174.001
173.783
173.576
173.38
173.192
173.012
172.844
172.686
172.532
172.381
172.238
172.108
171.986
171.865
171.734
171.589
171.435
171.286
171.169
171.098
171.075
171.09
171.148
171.248
171.375
171.474
171.527
171.467
237.197
226.744
226.836
226.922
226.895
226.704
226.372
225.926
225.391
224.786
224.153
223.535
222.82
221.909
221.065
220.413
220.005
219.827
219.791
219.828
219.923
219.999
220.013
219.957
219.808
219.605
219.406
219.225
219.046
218.849
218.623
218.373
218.104
217.814
217.5
217.16
216.793
216.396
215.968
215.507
215.012
214.479
213.904
213.285
212.621
211.912
211.158
210.355
209.501
208.594
207.634
206.626
205.58
204.503
203.402
202.288
201.175
200.018
198.852
197.699
196.546
195.383
194.197
192.98
191.745
190.497
189.247
188.017
186.84
185.724
184.678
183.711
182.826
182.023
181.299
180.641
180.037
179.48
178.958
178.474
178.013
177.594
177.202
176.834
176.48
176.138
175.813
175.504
175.215
174.938
174.678
174.432
174.201
173.98
173.77
173.569
173.376
173.186
173.004
172.829
172.659
172.49
172.327
172.178
172.043
171.916
171.786
171.647
171.494
171.333
171.179
171.058
170.987
170.967
170.987
171.052
171.16
171.293
171.399
171.458
171.405
237.083
226.746
226.835
226.917
226.888
226.688
226.342
225.881
225.336
224.736
224.122
223.532
222.851
221.96
221.117
220.451
220.018
219.817
219.771
219.801
219.894
219.981
220.002
219.955
219.814
219.61
219.406
219.222
219.044
218.846
218.621
218.372
218.104
217.815
217.503
217.164
216.797
216.402
215.975
215.516
215.022
214.491
213.919
213.303
212.643
211.939
211.191
210.395
209.549
208.651
207.702
206.709
205.68
204.622
203.547
202.457
201.343
200.232
199.094
197.962
196.819
195.665
194.494
193.295
192.061
190.806
189.549
188.307
187.097
185.946
184.871
183.882
182.98
182.157
181.41
180.729
180.106
179.544
179.024
178.549
178.095
177.67
177.26
176.87
176.502
176.155
175.831
175.527
175.239
174.959
174.694
174.439
174.197
173.963
173.739
173.521
173.311
173.109
172.92
172.742
172.57
172.402
172.247
172.109
171.983
171.86
171.735
171.598
171.451
171.296
171.147
171.031
170.965
170.947
170.963
171.021
171.12
171.246
171.347
171.401
171.339
236.964
226.747
226.833
226.912
226.881
226.671
226.31
225.833
225.279
224.684
224.09
223.528
222.881
222.012
221.171
220.491
220.034
219.809
219.751
219.774
219.864
219.961
219.99
219.951
219.82
219.616
219.407
219.221
219.041
218.844
218.62
218.372
218.105
217.817
217.506
217.168
216.802
216.408
215.983
215.526
215.034
214.505
213.936
213.323
212.668
211.969
211.228
210.439
209.601
208.712
207.776
206.797
205.785
204.751
203.704
202.637
201.551
200.426
199.311
198.185
197.047
195.896
194.725
193.529
192.306
191.056
189.787
188.517
187.287
186.134
185.077
184.1
183.199
182.366
181.602
180.909
180.275
179.69
179.137
178.622
178.134
177.68
177.251
176.854
176.481
176.13
175.803
175.495
175.201
174.914
174.641
174.38
174.137
173.905
173.686
173.475
173.274
173.083
172.905
172.732
172.561
172.395
172.241
172.098
171.961
171.825
171.689
171.546
171.394
171.235
171.081
170.959
170.883
170.857
170.866
170.918
171.016
171.145
171.25
171.307
171.251
236.837
226.748
226.831
226.907
226.872
226.654
226.276
225.782
225.22
224.631
224.057
223.524
222.911
222.064
221.228
220.536
220.054
219.803
219.731
219.746
219.833
219.94
219.977
219.947
219.826
219.623
219.409
219.219
219.039
218.842
218.619
218.372
218.106
217.819
217.509
217.172
216.808
216.416
215.992
215.537
215.048
214.522
213.955
213.347
212.696
212.003
211.268
210.487
209.657
208.778
207.853
206.891
205.899
204.888
203.858
202.812
201.754
200.646
199.538
198.429
197.317
196.183
195.012
193.797
192.549
191.283
190.016
188.775
187.575
186.44
185.381
184.391
183.468
182.609
181.815
181.082
180.402
179.769
179.182
178.652
178.168
177.728
177.313
176.916
176.537
176.177
175.84
175.518
175.213
174.919
174.645
174.387
174.146
173.913
173.689
173.467
173.255
173.053
172.861
172.672
172.49
172.319
172.162
172.012
171.869
171.732
171.6
171.467
171.326
171.175
171.027
170.906
170.832
170.808
170.824
170.883
170.985
171.116
171.219
171.275
171.211
236.703
226.748
226.829
226.901
226.862
226.634
226.24
225.728
225.158
224.576
224.024
223.52
222.941
222.117
221.286
220.584
220.077
219.8
219.712
219.718
219.799
219.916
219.962
219.942
219.831
219.63
219.412
219.219
219.037
218.841
218.619
218.373
218.107
217.822
217.512
217.177
216.815
216.424
216.003
215.549
215.063
214.54
213.977
213.372
212.726
212.04
211.311
210.537
209.715
208.847
207.937
206.992
206.021
205.028
204.013
202.983
201.939
200.889
199.8
198.711
197.61
196.485
195.325
194.123
192.881
191.614
190.347
189.096
187.883
186.724
185.622
184.603
183.658
182.781
181.966
181.211
180.515
179.881
179.303
178.771
178.27
177.795
177.349
176.926
176.535
176.168
175.828
175.503
175.194
174.896
174.616
174.349
174.096
173.851
173.617
173.392
173.185
172.99
172.804
172.622
172.452
172.295
172.146
171.998
171.854
171.718
171.589
171.457
171.312
171.154
170.995
170.862
170.776
170.745
170.753
170.801
170.894
171.021
171.123
171.18
171.119
236.56
226.747
226.83
226.899
226.851
226.612
226.201
225.671
225.093
224.52
223.991
223.515
222.97
222.171
221.347
220.636
220.106
219.8
219.693
219.689
219.765
219.891
219.946
219.935
219.836
219.637
219.416
219.219
219.035
218.84
218.619
218.374
218.109
217.824
217.516
217.182
216.822
216.433
216.014
215.563
215.08
214.56
214.001
213.401
212.76
212.079
211.357
210.591
209.778
208.921
208.025
207.099
206.146
205.171
204.177
203.166
202.139
201.102
200.035
198.956
197.857
196.73
195.57
194.371
193.137
191.875
190.598
189.333
188.116
186.96
185.891
184.892
183.951
183.065
182.233
181.455
180.735
180.063
179.432
178.844
178.305
177.809
177.361
176.944
176.561
176.192
175.845
175.509
175.19
174.884
174.602
174.334
174.082
173.841
173.613
173.397
173.193
172.995
172.799
172.61
172.434
172.269
172.106
171.942
171.786
171.642
171.507
171.369
171.219
171.056
170.894
170.761
170.677
170.648
170.659
170.713
170.814
170.952
171.065
171.13
171.076
236.409
226.748
226.834
226.898
226.839
226.587
226.158
225.61
225.026
224.462
223.957
223.51
222.999
222.225
221.409
220.691
220.138
219.803
219.674
219.66
219.73
219.862
219.929
219.928
219.838
219.645
219.422
219.22
219.034
218.839
218.62
218.376
218.111
217.828
217.521
217.189
216.83
216.444
216.027
215.579
215.098
214.581
214.026
213.431
212.796
212.121
211.406
210.647
209.844
209
208.12
207.21
206.275
205.32
204.349
203.363
202.352
201.315
200.262
199.205
198.126
197.016
195.859
194.649
193.401
192.133
190.869
189.629
188.421
187.287
186.224
185.207
184.243
183.324
182.459
181.646
180.887
180.171
179.508
178.921
178.395
177.907
177.452
177.019
176.617
176.233
175.874
175.53
175.205
174.896
174.608
174.334
174.072
173.82
173.58
173.352
173.134
172.923
172.72
172.531
172.36
172.197
172.032
171.872
171.726
171.594
171.468
171.333
171.183
171.021
170.861
170.726
170.634
170.599
170.604
170.652
170.75
170.886
170.997
171.057
170.994
236.249
226.755
226.841
226.9
226.825
226.558
226.112
225.547
224.956
224.404
223.924
223.506
223.028
222.28
221.473
220.75
220.176
219.81
219.657
219.632
219.694
219.83
219.911
219.919
219.839
219.654
219.429
219.222
219.033
218.839
218.621
218.378
218.114
217.831
217.526
217.195
216.839
216.455
216.04
215.595
215.118
214.605
214.054
213.464
212.834
212.166
211.457
210.707
209.914
209.083
208.219
207.326
206.41
205.475
204.523
203.551
202.564
201.57
200.539
199.498
198.433
197.333
196.186
194.986
193.745
192.484
191.225
189.986
188.787
187.623
186.501
185.459
184.476
183.545
182.665
181.835
181.052
180.337
179.684
179.08
178.506
177.972
177.478
177.023
176.608
176.219
175.855
175.504
175.172
174.857
174.566
174.29
174.028
173.779
173.545
173.322
173.109
172.904
172.709
172.526
172.351
172.177
172.003
171.839
171.691
171.554
171.415
171.265
171.104
170.935
170.766
170.619
170.521
170.485
170.496
170.552
170.659
170.803
170.922
170.989
170.933
236.085
226.764
226.851
226.905
226.811
226.526
226.061
225.479
224.884
224.344
223.89
223.501
223.056
222.334
221.538
220.812
220.218
219.821
219.643
219.605
219.657
219.794
219.89
219.907
219.839
219.664
219.438
219.225
219.033
218.84
218.623
218.38
218.117
217.835
217.531
217.203
216.849
216.467
216.055
215.613
215.139
214.63
214.083
213.498
212.874
212.212
211.511
210.77
209.989
209.172
208.323
207.449
206.552
205.634
204.695
203.739
202.781
201.815
200.814
199.766
198.696
197.592
196.443
195.247
194.012
192.756
191.497
190.26
189.071
187.928
186.848
185.819
184.831
183.889
182.983
182.126
181.321
180.565
179.846
179.177
178.567
178.032
177.545
177.099
176.685
176.291
175.915
175.55
175.209
174.889
174.596
174.317
174.05
173.792
173.545
173.309
173.081
172.863
172.656
172.459
172.266
172.077
171.901
171.745
171.607
171.474
171.337
171.191
171.038
170.879
170.717
170.577
170.489
170.46
170.471
170.524
170.625
170.764
170.877
170.939
170.871
235.92
226.776
226.864
226.91
226.795
226.49
226.005
225.408
224.809
224.283
223.857
223.497
223.084
222.388
221.604
220.877
220.266
219.838
219.63
219.578
219.62
219.756
219.866
219.894
219.838
219.675
219.448
219.229
219.034
218.841
218.625
218.382
218.119
217.839
217.536
217.211
216.86
216.48
216.071
215.632
215.161
214.656
214.114
213.534
212.916
212.261
211.568
210.836
210.068
209.265
208.434
207.577
206.698
205.796
204.875
203.942
202.995
202.03
201.05