/*--------------------------------*- C++ -*----------------------------------*\
| =========                 |                                                 |
| \\      /  F ield         | OpenFOAM: The Open Source CFD Toolbox           |
|  \\    /   O peration     | Version:  2412                                  |
|   \\  /    A nd           | Website:  www.openfoam.com                      |
|    \\/     M anipulation  |                                                 |
\*---------------------------------------------------------------------------*/
FoamFile
{
    version     2.0;
    format      ascii;
    arch        "LSB;label=32;scalar=64";
    class       volScalarField;
    location    "0.023";
    object      p;
}
// * * * * * * * * * * * * * * * * * * * * * * * * * * * * * * * * * * * * * //

dimensions      [1 -1 -2 0 0 0 0];

internalField   nonuniform List<scalar> 
78650
(
2790
2790
2790
2790
2790
2790
2790
2790
2790
2790
2790
2790
2790
2790
2790
2790
2790.01
2790.41
2794.89
2811.8
2836.57
2852.87
2855.78
2854.38
2843.72
2827.54
2812.36
2799.1
2787.86
2779.22
2774.11
2771.6
2769.68
2767.2
2763.76
2759.9
2756.55
2753.78
2751.06
2748.17
2745.37
2742.85
2740.72
2738.85
2737.2
2735.7
2734.32
2733.09
2731.98
2730.98
2730.11
2729.37
2728.78
2728.35
2728.05
2727.84
2727.66
2727.49
2727.34
2727.17
2726.98
2726.72
2726.36
2725.87
2725.25
2724.46
2723.47
2722.19
2720.57
2718.53
2716.01
2712.96
2709.31
2705.02
2700.01
2694.21
2687.54
2679.88
2671.1
2661.11
2649.76
2636.95
2622.52
2606.34
2588.26
2568.12
2545.78
2521.13
2494.1
2464.39
2431.93
2396.18
2357.58
2315.76
2271.52
2224.33
2173.89
2120.96
2065.98
2009.11
1948.5
1885.17
1820.39
1755.18
1690.33
1628.53
1567.38
1510.44
1456.5
1404.45
1357.76
1314.65
1275.64
1238.78
1204.81
1173.52
1146.99
1123.65
1103.01
1085.34
1047.19
2790
2790
2790
2790
2790
2790
2790
2790
2790
2790
2790
2790
2790
2790
2790
2790
2790.01
2790.22
2793.22
2807.32
2832.29
2851.59
2856.42
2856.25
2848.14
2832.63
2816.87
2803.07
2791.4
2782.35
2776.83
2774.31
2772.68
2770.67
2767.72
2764.12
2760.83
2758.16
2755.59
2752.82
2750.07
2747.58
2745.49
2743.69
2742.15
2740.78
2739.54
2738.47
2737.52
2736.69
2736
2735.46
2735.08
2734.87
2734.82
2734.87
2734.96
2735.09
2735.23
2735.39
2735.54
2735.65
2735.68
2735.62
2735.43
2735.13
2734.66
2733.94
2732.95
2731.58
2729.79
2727.53
2724.74
2721.37
2717.36
2712.65
2707.15
2700.77
2693.39
2684.9
2675.19
2664.14
2651.61
2637.45
2621.53
2603.71
2583.86
2561.78
2537.32
2510.19
2480.41
2447.63
2412.1
2373.17
2331.14
2285.6
2237.16
2186.09
2132.34
2076.36
2019.08
1960.19
1900.58
1838.86
1775.52
1712.57
1649.27
1587.02
1530.2
1473.51
1420.81
1371.54
1323.69
1280.9
1241.86
1205.99
1174.77
1146.15
1121.42
1100.4
1060.55
2790
2790
2790
2790
2790
2790
2790
2790
2790
2790
2790
2790
2790
2790
2790
2790
2790
2790.11
2792.01
2803.18
2827.33
2849.42
2856.78
2858.12
2852.26
2837.68
2821.35
2807.02
2795.02
2785.63
2779.71
2777.15
2775.77
2774.19
2771.74
2768.44
2765.23
2762.61
2760.16
2757.51
2754.82
2752.36
2750.31
2748.58
2747.15
2745.91
2744.85
2743.94
2743.15
2742.5
2742
2741.66
2741.5
2741.51
2741.7
2742.01
2742.38
2742.8
2743.25
2743.73
2744.22
2744.7
2745.12
2745.47
2745.73
2745.89
2745.93
2745.77
2745.38
2744.69
2743.6
2742.11
2740.13
2737.65
2734.59
2730.91
2726.52
2721.35
2715.27
2708.19
2700
2690.58
2679.8
2667.53
2653.63
2637.94
2620.33
2600.62
2578.73
2554.4
2527.53
2497.74
2465.16
2429.37
2390.78
2349.04
2304.2
2255.99
2204.14
2148.9
2090.5
2029.47
1967.61
1905.71
1843.59
1781.02
1720.46
1656.83
1596.56
1536.75
1477.79
1425.09
1373.73
1326.99
1283.86
1242.51
1204.81
1169.61
1138.79
1112.49
1061.8
2790
2790
2790
2790
2790
2790
2790
2790
2790
2790
2790
2790
2790
2790
2790
2790
2790
2790.05
2791.16
2799.46
2821.78
2846.36
2856.86
2859.85
2855.98
2842.72
2825.99
2811.2
2798.94
2789.22
2782.88
2780.17
2778.99
2777.79
2775.84
2772.89
2769.74
2767.14
2764.79
2762.24
2759.62
2757.19
2755.19
2753.53
2752.22
2751.12
2750.23
2749.5
2748.88
2748.41
2748.1
2747.97
2748.02
2748.26
2748.66
2749.22
2749.87
2750.57
2751.31
2752.1
2752.92
2753.75
2754.54
2755.29
2755.98
2756.59
2757.1
2757.48
2757.65
2757.58
2757.2
2756.45
2755.26
2753.63
2751.49
2748.8
2745.48
2741.48
2736.68
2730.98
2724.28
2716.49
2707.47
2697.09
2685.22
2671.72
2656.44
2639.21
2619.87
2598.2
2574.15
2547.47
2518.15
2485.66
2450.17
2411.34
2369.43
2324.43
2276.14
2224.97
2170.47
2112.22
2049.87
1985.25
1919.05
1851.78
1786.84
1721.24
1655.67
1595.17
1533.6
1476.39
1421.66
1369.46
1322.26
1278.75
1240.62
1206.36
1175.57
1147.95
1092.88
2790
2790
2790
2790
2790
2790
2790
2790
2790
2790
2790
2790
2790
2790
2790
2790
2790
2790.02
2790.61
2796.35
2815.89
2842.22
2856.67
2861.46
2858.9
2847.56
2830.83
2815.7
2803.18
2793.07
2786.32
2783.37
2782.31
2781.44
2779.99
2777.42
2774.36
2771.75
2769.46
2767.02
2764.49
2762.1
2760.16
2758.59
2757.41
2756.46
2755.76
2755.21
2754.76
2754.48
2754.37
2754.45
2754.71
2755.16
2755.8
2756.6
2757.51
2758.49
2759.52
2760.62
2761.76
2762.93
2764.09
2765.23
2766.33
2767.38
2768.37
2769.27
2769.99
2770.5
2770.75
2770.74
2770.32
2769.53
2768.26
2766.52
2764.22
2761.32
2757.72
2753.32
2748.02
2741.73
2734.33
2725.71
2715.73
2704.25
2691.11
2676.17
2659.3
2640.33
2619.17
2595.46
2569.1
2539.69
2507.43
2471.92
2433.23
2391.09
2345.48
2297.08
2245.37
2190.81
2133.42
2072.52
2009.27
1942.79
1873.75
1806.02
1735.73
1669.27
1602.81
1537.82
1477.92
1418.68
1364.06
1312.95
1266.43
1224.56
1190.74
1163.68
1108.16
2790
2790
2790
2790
2790
2790
2790
2790
2790
2790
2790
2790
2790
2790
2790
2790
2790
2790.01
2790.29
2793.93
2809.93
2836.88
2855.78
2862.68
2861.07
2852.28
2836.15
2820.73
2807.85
2797.28
2790.11
2786.78
2785.77
2785.14
2784.12
2781.97
2779.02
2776.38
2774.15
2771.85
2769.43
2767.13
2765.25
2763.79
2762.74
2761.96
2761.46
2761.08
2760.82
2760.73
2760.83
2761.1
2761.57
2762.23
2763.1
2764.14
2765.3
2766.55
2767.86
2769.25
2770.7
2772.2
2773.71
2775.23
2776.72
2778.2
2779.64
2781.02
2782.29
2783.39
2784.26
2784.87
2785.19
2785.21
2784.8
2783.99
2782.67
2780.84
2778.39
2775.25
2771.32
2766.52
2760.73
2753.86
2745.76
2736.31
2725.36
2712.76
2698.38
2682
2663.53
2642.69
2619.37
2593.15
2564.06
2531.66
2496.02
2456.95
2414.4
2368.63
2318.96
2266.26
2210.04
2150.55
2088.45
2024.17
1958.17
1892.02
1824.33
1755.04
1687.36
1618.83
1555
1491.91
1431.67
1377.59
1326.98
1279.43
1234.99
1196.78
1123.97
2790
2790
2790
2790
2790
2790
2790
2790
2790
2790
2790
2790
2790
2790
2790
2790
2790
2790
2790.12
2792.21
2804.34
2830.41
2853.57
2863.22
2862.75
2856.86
2841.88
2826.1
2812.77
2801.8
2794.21
2790.37
2789.28
2788.81
2788.14
2786.45
2783.67
2781.03
2778.86
2776.72
2774.45
2772.27
2770.48
2769.15
2768.22
2767.62
2767.32
2767.15
2767.09
2767.19
2767.47
2767.95
2768.63
2769.51
2770.59
2771.86
2773.27
2774.79
2776.37
2778.04
2779.8
2781.62
2783.48
2785.35
2787.23
2789.12
2791
2792.86
2794.64
2796.3
2797.78
2799.06
2800.07
2800.79
2801.21
2801.29
2800.92
2800.11
2798.76
2796.8
2794.15
2790.72
2786.42
2781.15
2774.8
2767.22
2758.29
2747.85
2735.78
2721.92
2706.13
2688.14
2667.83
2644.86
2619.28
2590.65
2559.02
2524.03
2485.57
2443.61
2397.54
2348.12
2294.32
2237.05
2176.09
2110.95
2042.69
1971.88
1902.31
1829.41
1759.78
1688.79
1620.29
1554.24
1489.04
1429.98
1374.25
1324.3
1280.76
1243.28
1169.38
2790
2790
2790
2790
2790
2790
2790
2790
2790
2790
2790
2790
2790
2790
2790
2790
2790
2790
2790.05
2791.11
2799.51
2823.07
2849.59
2863.14
2864.37
2861.1
2847.75
2831.8
2818.1
2806.8
2798.7
2794.13
2792.77
2792.34
2791.95
2790.76
2788.28
2785.7
2783.63
2781.69
2779.62
2777.59
2775.91
2774.7
2773.9
2773.48
2773.38
2773.45
2773.57
2773.84
2774.3
2774.99
2775.87
2776.96
2778.25
2779.74
2781.39
2783.15
2785
2786.95
2788.99
2791.12
2793.3
2795.53
2797.79
2800.06
2802.36
2804.67
2806.94
2809.14
2811.2
2813.09
2814.78
2816.25
2817.43
2818.3
2818.84
2819.01
2818.73
2817.93
2816.53
2814.45
2811.61
2807.91
2803.28
2797.56
2790.65
2782.38
2772.63
2761.21
2748
2732.78
2715.47
2695.75
2673.53
2648.36
2620.25
2588.82
2554
2515.67
2473.46
2427.87
2377.95
2324.92
2267.91
2207.05
2142.72
2074.17
2004.24
1928.51
1853.37
1778.9
1702.38
1630.98
1557.04
1489.59
1424.47
1363.56
1310.09
1265.39
1174.61
2790
2790
2790
2790
2790
2790
2790
2790
2790
2790
2790
2790
2790
2790
2790
2790
2790
2790
2790.02
2790.49
2795.74
2815.43
2843.94
2862.15
2866.09
2864.37
2853.5
2837.9
2823.87
2812.16
2803.31
2797.87
2796.08
2795.67
2795.51
2794.87
2792.85
2790.45
2788.51
2786.8
2784.95
2783.1
2781.53
2780.47
2779.79
2779.54
2779.67
2779.92
2780.23
2780.69
2781.34
2782.22
2783.31
2784.6
2786.09
2787.78
2789.66
2791.66
2793.77
2795.98
2798.3
2800.72
2803.23
2805.8
2808.42
2811.07
2813.78
2816.52
2819.26
2821.98
2824.6
2827.09
2829.42
2831.57
2833.5
2835.19
2836.58
2837.64
2838.33
2838.6
2838.39
2837.58
2836.12
2833.87
2830.8
2826.78
2821.72
2815.45
2807.85
2798.76
2788.08
2775.6
2761.21
2744.58
2725.59
2703.84
2679.29
2651.49
2620.35
2585.62
2547.01
2504.75
2458.11
2408.03
2353.26
2294.89
2232.81
2167.31
2098.05
2025.84
1951.82
1880.63
1803.36
1728.8
1653
1579.02
1509.79
1445.48
1386.02
1334.12
1231.97
2790
2790
2790
2790
2790
2790
2790
2790
2790
2790
2790
2790
2790
2790
2790
2790
2790
2790
2790
2790.19
2793.1
2808.12
2836.7
2859.9
2866.86
2866.76
2859.24
2844.59
2830.02
2817.59
2807.83
2801.54
2799.28
2798.92
2799
2798.9
2797.49
2795.37
2793.58
2792.1
2790.51
2788.86
2787.42
2786.49
2785.94
2785.82
2786.15
2786.59
2787.09
2787.73
2788.56
2789.61
2790.89
2792.37
2794.04
2795.93
2798.02
2800.26
2802.61
2805.07
2807.65
2810.36
2813.18
2816.07
2819.03
2822.05
2825.14
2828.29
2831.48
2834.68
2837.84
2840.9
2843.85
2846.65
2849.29
2851.73
2853.95
2855.9
2857.55
2858.82
2859.68
2860.08
2859.97
2859.17
2857.68
2855.31
2852.06
2847.74
2842.27
2835.46
2827.21
2817.31
2805.64
2791.94
2776.07
2757.68
2736.7
2712.72
2685.66
2655.23
2621.15
2583.41
2541.33
2495.3
2444.21
2389.51
2329.98
2265.75
2196.51
2123.7
2047.81
1969.07
1887.25
1805.27
1728.38
1650.02
1575.85
1505.43
1441.91
1388.91
1285.25
2790
2790
2790
2790
2790
2790
2790
2790
2790
2790
2790
2790
2790
2790
2790
2790
2790
2790
2790
2790.07
2791.47
2801.79
2828.28
2855.82
2866.73
2869.07
2864.59
2851.38
2836.06
2822.84
2812.33
2805.36
2802.57
2802.2
2802.57
2802.91
2802.1
2800.36
2798.78
2797.58
2796.3
2794.89
2793.56
2792.75
2792.32
2792.3
2792.81
2793.42
2794.11
2794.93
2795.93
2797.16
2798.6
2800.26
2802.12
2804.19
2806.47
2808.93
2811.52
2814.22
2817.06
2820.04
2823.15
2826.36
2829.65
2833.03
2836.48
2840.03
2843.65
2847.32
2850.98
2854.59
2858.12
2861.56
2864.87
2868.04
2871.03
2873.81
2876.35
2878.6
2880.52
2882.01
2883.03
2883.54
2883.54
2882.71
2881.15
2878.62
2875.1
2870.4
2864.44
2857.03
2848.05
2837.26
2824.54
2809.57
2792.25
2772.17
2749.23
2723.04
2693.36
2660.01
2622.39
2580.77
2534.43
2484.35
2428.95
2369.19
2304.74
2236.04
2164.41
2084.89
2005.22
1920.4
1837.64
1748.51
1666.66
1587.73
1511.97
1446.62
1316.85
2790
2790
2790
2790
2790
2790
2790
2790
2790
2790
2790
2790
2790
2790
2790
2790
2790
2790
2790
2790.02
2790.61
2796.91
2819.31
2849.74
2866
2871.37
2868.81
2857.61
2841.99
2828.23
2817.16
2809.57
2806.09
2805.54
2806.18
2807
2806.69
2805.42
2804.14
2803.23
2802.29
2801.15
2799.95
2799.22
2798.89
2798.97
2799.61
2800.38
2801.25
2802.24
2803.4
2804.78
2806.39
2808.2
2810.22
2812.46
2814.93
2817.59
2820.41
2823.35
2826.43
2829.67
2833.05
2836.56
2840.17
2843.88
2847.69
2851.61
2855.63
2859.74
2863.88
2868.01
2872.1
2876.13
2880.08
2883.93
2887.65
2891.22
2894.61
2897.78
2900.68
2903.27
2905.48
2907.22
2908.46
2909.15
2909.25
2908.49
2906.9
2904.24
2900.47
2895.42
2888.96
2880.9
2871.11
2859.31
2845.35
2828.85
2809.68
2787.41
2761.83
2732.62
2699.31
2662.04
2620.12
2573.95
2522.15
2466.08
2404.85
2338.66
2266.94
2190.76
2111.52
2029.69
1945.58
1857.47
1771.03
1690.18
1611.51
1541.58
1407.67
2790
2790
2790
2790
2790
2790
2790
2790
2790
2790
2790
2790
2790
2790
2790
2790
2790
2790
2790
2790.01
2790.22
2793.61
2810.71
2841.83
2864.38
2872.72
2871.57
2863.38
2848.19
2833.99
2822.34
2814.03
2809.7
2808.86
2809.73
2811.19
2811.35
2810.59
2809.57
2808.92
2808.32
2807.5
2806.44
2805.78
2805.52
2805.67
2806.42
2807.34
2808.39
2809.55
2810.87
2812.41
2814.17
2816.14
2818.32
2820.72
2823.36
2826.22
2829.26
2832.43
2835.75
2839.23
2842.89
2846.68
2850.6
2854.64
2858.79
2863.07
2867.48
2872
2876.59
2881.22
2885.84
2890.43
2894.98
2899.47
2903.89
2908.2
2912.39
2916.41
2920.24
2923.82
2927.09
2930.01
2932.53
2934.54
2936
2936.84
2937.03
2936.28
2934.6
2931.77
2927.72
2922.29
2915.34
2906.6
2895.93
2882.97
2867.59
2849.37
2828.14
2803.55
2775.25
2743.14
2706.52
2665.5
2619.18
2568.4
2511.55
2449.22
2381.02
2307.89
2229.82
2146.79
2055.05
1962.51
1863.2
1771.69
1682.63
1605.72
1452.3
2790
2790
2790
2790
2790
2790
2790
2790
2790
2790
2790
2790
2790
2790
2790
2790
2790
2790
2790
2790
2790.07
2791.67
2803.39
2832.6
2860.89
2873.06
2873.49
2868.66
2854.68
2839.95
2827.63
2818.58
2813.45
2812.31
2813.31
2815.49
2816.21
2815.78
2814.97
2814.52
2814.25
2813.79
2812.9
2812.29
2812.09
2812.3
2813.16
2814.22
2815.46
2816.8
2818.29
2819.97
2821.88
2824
2826.34
2828.89
2831.7
2834.75
2837.99
2841.39
2844.94
2848.67
2852.57
2856.64
2860.86
2865.2
2869.68
2874.3
2879.06
2883.97
2888.99
2894.08
2899.19
2904.31
2909.42
2914.52
2919.59
2924.6
2929.53
2934.36
2939.05
2943.56
2947.85
2951.87
2955.56
2958.88
2961.77
2964.11
2965.83
2966.87
2967.18
2966.5
2964.76
2961.78
2957.44
2951.54
2943.96
2934.37
2922.67
2908.45
2891.54
2871.54
2848.13
2821.03
2789.55
2753.74
2712.9
2667.41
2615.7
2558.6
2495.57
2427.56
2353.48
2273.07
2187.23
2097.94
2002.05
1909.02
1813.02
1725.49
1554.2
2790
2790
2790
2790
2790
2790
2790
2790
2790
2790
2790
2790
2790
2790
2790
2790
2790
2790
2790
2790
2790.02
2790.68
2797.88
2822.95
2855.08
2872.36
2875.45
2873.11
2860.87
2845.74
2832.89
2823.3
2817.5
2815.97
2816.88
2819.62
2820.92
2820.71
2820.09
2819.85
2819.87
2819.76
2819.11
2818.55
2818.4
2818.71
2819.66
2820.88
2822.33
2823.87
2825.53
2827.37
2829.42
2831.69
2834.18
2836.9
2839.88
2843.11
2846.57
2850.19
2853.97
2857.93
2862.08
2866.42
2870.91
2875.56
2880.35
2885.29
2890.4
2895.67
2901.09
2906.62
2912.2
2917.82
2923.47
2929.13
2934.81
2940.47
2946.1
2951.67
2957.16
2962.55
2967.77
2972.79
2977.57
2982.06
2986.2
2989.93
2993.19
2995.84
2997.82
2999.04
2999.46
2998.83
2997.03
2993.89
2989.25
2982.9
2974.67
2964.19
2951.28
2935.49
2916.55
2894.08
2867.51
2836.84
2801.33
2760.94
2714.43
2662.65
2604.35
2539.99
2468.31
2390.75
2306.67
2215.36
2120.23
2019.55
1918.88
1832.43
1668.92
2790
2790
2790
2790
2790
2790
2790
2790
2790
2790
2790
2790
2790
2790
2790
2790
2790
2790
2790
2790
2790.01
2790.25
2794.2
2813.87
2847.45
2870.59
2877.23
2876.07
2866.4
2851.52
2838.35
2828.31
2821.78
2819.59
2820.14
2823.18
2825.21
2825.31
2824.95
2824.86
2825.18
2825.34
2824.97
2824.49
2824.42
2824.87
2825.95
2827.35
2829
2830.75
2832.57
2834.56
2836.76
2839.18
2841.83
2844.72
2847.87
2851.29
2854.94
2858.79
2862.79
2866.98
2871.37
2875.96
2880.72
2885.65
2890.73
2895.99
2901.41
2907.03
2912.81
2918.74
2924.76
2930.84
2936.98
2943.18
2949.41
2955.68
2961.95
2968.22
2974.45
2980.64
2986.73
2992.69
2998.48
3004.06
3009.39
3014.41
3019.06
3023.25
3026.92
3029.94
3032.21
3033.66
3034.21
3033.66
3031.78
3028.43
3023.39
3016.42
3007.32
2995.7
2981.31
2963.74
2942.58
2917.66
2888.13
2853.86
2813.94
2768.86
2716.97
2658.55
2592.53
2520.64
2441.77
2355.46
2261.13
2160.74
2050.34
1948.41
1759.73
2790
2790
2790
2790
2790
2790
2790
2790
2790
2790
2790
2790
2790
2790
2790
2790
2790
2790
2790
2790
2790
2790.08
2792.04
2806.17
2838.77
2867.68
2877.84
2878.04
2871.48
2857.46
2843.94
2833.26
2825.83
2822.82
2822.96
2826.13
2829.16
2829.76
2829.63
2829.63
2830.23
2830.64
2830.48
2830.17
2830.22
2830.84
2832.06
2833.63
2835.46
2837.38
2839.37
2841.49
2843.83
2846.41
2849.23
2852.29
2855.62
2859.22
2863.08
2867.14
2871.37
2875.78
2880.4
2885.23
2890.25
2895.45
2900.82
2906.36
2912.1
2918.03
2924.16
2930.46
2936.89
2943.42
2950.02
2956.7
2963.46
2970.29
2977.16
2984.07
2990.99
2997.91
3004.79
3011.61
3018.32
3024.9
3031.3
3037.48
3043.39
3048.95
3054.11
3058.77
3062.87
3066.27
3068.86
3070.55
3071.26
3070.8
3068.81
3065.22
3059.74
3052.1
3042.05
3029.19
3013.14
2993.53
2969.56
2941.15
2907.46
2868.41
2822.44
2770.18
2710.72
2644.44
2569.44
2486.71
2395.92
2296.83
2190.46
2093.62
1920.64
2790
2790
2790
2790
2790
2790
2790
2790
2790
2790
2790
2790
2790
2790
2790
2790
2790
2790
2790
2790
2790
2790.03
2790.92
2800.29
2829.82
2863.31
2877.36
2879.99
2876.14
2863.31
2849.1
2837.66
2829.52
2825.79
2825.59
2828.82
2832.97
2834.21
2834.21
2834.24
2835.07
2835.77
2835.8
2835.7
2835.87
2836.66
2838.01
2839.73
2841.72
2843.8
2845.93
2848.18
2850.66
2853.39
2856.38
2859.62
2863.13
2866.91
2870.97
2875.24
2879.69
2884.32
2889.16
2894.21
2899.48
2904.93
2910.57
2916.39
2922.41
2928.64
2935.09
2941.74
2948.54
2955.47
2962.5
2969.63
2976.87
2984.2
2991.62
2999.11
3006.66
3014.25
3021.86
3029.46
3037.02
3044.5
3051.88
3059.13
3066.2
3073.03
3079.56
3085.72
3091.44
3096.63
3101.21
3105.04
3107.96
3109.91
3110.78
3110.39
3108.27
3104.37
3098.28
3089.75
3078.37
3063.73
3045.25
3022.76
2995.27
2962.53
2923.42
2878.37
2825.89
2765.73
2696.5
2619.04
2531.79
2435.17
2330.87
2219.29
2035.72
2790
2790
2790
2790
2790
2790
2790
2790
2790
2790
2790
2790
2790
2790
2790
2790
2790
2790
2790
2790
2790
2790.01
2790.4
2796.23
2821.38
2857.69
2876.33
2882.15
2879.85
2868.24
2853.59
2841.63
2833
2828.78
2828.31
2831.47
2836.69
2838.6
2838.68
2838.72
2839.7
2840.75
2841.04
2841.1
2841.42
2842.33
2843.81
2845.68
2847.81
2850.04
2852.29
2854.68
2857.29
2860.17
2863.32
2866.74
2870.41
2874.37
2878.61
2883.09
2887.74
2892.58
2897.62
2902.9
2908.39
2914.09
2919.97
2926.06
2932.34
2938.86
2945.6
2952.56
2959.72
2967.01
2974.44
2981.98
2989.66
2997.47
3005.39
3013.42
3021.54
3029.74
3038.01
3046.32
3054.64
3062.95
3071.21
3079.42
3087.52
3095.47
3103.23
3110.73
3117.91
3124.7
3131.02
3136.77
3141.86
3146.15
3149.45
3151.69
3152.71
3152.37
3149.99
3145.65
3138.78
3129.18
3116.31
3099.86
3078.82
3053.04
3021.42
2983.88
2938.65
2885.76
2824.25
2754.26
2673.97
2585.98
2484.76
2381.48
2211.54
2790
2790
2790
2790
2790
2790
2790
2790
2790
2790
2790
2790
2790
2790
2790
2790
2790
2790
2790
2790
2790
2790
2790.17
2793.68
2814.11
2851.39
2875.24
2883.74
2882.32
2872.45
2857.63
2845.33
2836.43
2831.84
2831.12
2834.08
2840.18
2842.77
2842.98
2843.08
2844.19
2845.6
2846.2
2846.44
2846.91
2847.93
2849.52
2851.51
2853.77
2856.14
2858.53
2861.04
2863.78
2866.81
2870.11
2873.68
2877.52
2881.63
2886.04
2890.7
2895.54
2900.57
2905.81
2911.29
2916.99
2922.91
2929.03
2935.35
2941.89
2948.66
2955.67
2962.93
2970.39
2978.03
2985.81
2993.74
3001.82
3010.05
3018.42
3026.93
3035.57
3044.32
3053.18
3062.12
3071.13
3080.18
3089.24
3098.3
3107.33
3116.3
3125.16
3133.86
3142.35
3150.58
3158.47
3165.94
3172.92
3179.28
3184.94
3189.73
3193.43
3195.95
3197.13
3196.79
3194.12
3189.25
3181.4
3170.38
3155.28
3135.9
3110.96
3080.21
3042.18
2997.12
2943.62
2880.53
2806.34
2720.99
2621.3
2514.09
2354.11
2790
2790
2790
2790
2790
2790
2790
2790
2790
2790
2790
2790
2790
2790
2790
2790
2790
2790
2790
2790
2790
2790
2790.07
2792.17
2808.35
2845.12
2874
2884.75
2884.02
2875.93
2861.3
2848.83
2839.77
2834.78
2833.81
2836.53
2843.35
2846.64
2847.14
2847.4
2848.67
2850.44
2851.37
2851.78
2852.34
2853.45
2855.14
2857.23
2859.63
2862.15
2864.69
2867.32
2870.19
2873.34
2876.78
2880.48
2884.46
2888.71
2893.26
2898.08
2903.1
2908.3
2913.71
2919.37
2925.27
2931.39
2937.72
2944.27
2951.04
2958.05
2965.31
2972.83
2980.58
2988.52
2996.63
3004.91
3013.35
3021.96
3030.75
3039.7
3048.8
3058.05
3067.44
3076.95
3086.57
3096.28
3106.05
3115.88
3125.74
3135.6
3145.43
3155.19
3164.84
3174.33
3183.61
3192.6
3201.25
3209.45
3217.14
3224.16
3230.44
3235.78
3239.9
3242.72
3244
3243.53
3240.32
3234.59
3225.34
3212.44
3194.64
3171.8
3142.3
3106.06
3061.01
3006.33
2940.94
2863.05
2773.32
2667.82
2522.67
2790
2790
2790
2790
2790
2790
2790
2790
2790
2790
2790
2790
2790
2790
2790
2790
2790
2790
2790
2790
2790
2790
2790.04
2791.33
2804.14
2839.51
2872.35
2885.41
2885.34
2878.87
2864.61
2852.03
2842.79
2837.37
2836.16
2838.83
2846.31
2850.36
2851.27
2851.77
2853.24
2855.34
2856.53
2857.06
2857.68
2858.85
2860.62
2862.83
2865.37
2868.05
2870.75
2873.53
2876.51
2879.78
2883.34
2887.16
2891.26
2895.63
2900.31
2905.26
2910.42
2915.78
2921.35
2927.17
2933.24
2939.54
2946.08
2952.83
2959.81
2967.04
2974.53
2982.28
2990.29
2998.51
3006.92
3015.5
3024.27
3033.23
3042.38
3051.72
3061.24
3070.93
3080.79
3090.81
3100.97
3111.26
3121.66
3132.16
3142.74
3153.39
3164.08
3174.77
3185.44
3196.04
3206.53
3216.86
3226.97
3236.8
3246.27
3255.28
3263.74
3271.51
3278.45
3284.36
3288.91
3292.02
3293.4
3292.77
3289.06
3282.34
3271.27
3255.8
3234.17
3206.24
3169.75
3124.43
3067.67
2997.1
2913.57
2811.46
2675.05
2790
2790
2790
2790
2790
2790
2790
2790
2790
2790
2790
2790
2790
2790
2790
2790
2790
2790
2790
2790
2790
2790
2790.02
2790.88
2801.27
2835.01
2870.6
2885.85
2886.61
2881.31
2867.46
2854.77
2845.27
2839.54
2838.2
2841.1
2849.27
2854.05
2855.42
2856.21
2857.89
2860.25
2861.63
2862.21
2862.82
2864.03
2865.88
2868.22
2870.93
2873.8
2876.67
2879.6
2882.72
2886.1
2889.77
2893.71
2897.91
2902.39
2907.17
2912.23
2917.53
2923.02
2928.72
2934.68
2940.91
2947.38
2954.09
2961.03
2968.2
2975.62
2983.32
2991.29
2999.53
3008
3016.67
3025.53
3034.59
3043.86
3053.34
3063.02
3072.91
3082.99
3093.27
3103.74
3114.38
3125.18
3136.13
3147.23
3158.45
3169.78
3181.22
3192.72
3204.27
3215.83
3227.37
3238.86
3250.24
3261.48
3272.49
3283.22
3293.59
3303.47
3312.8
3321.37
3329.05
3335.58
3340.61
3344
3345.38
3344.26
3339.36
3330.84
3316.91
3297.46
3270.12
3234.72
3187.29
3126.11
3050.54
2955.28
2828.31
2790
2790
2790
2790
2790
2790
2790
2790
2790
2790
2790
2790
2790
2790
2790
2790
2790
2790
2790
2790
2790
2790
2790.01
2790.66
2799.5
2831.81
2869.23
2886.14
2887.8
2883.24
2869.72
2856.91
2847.17
2841.34
2840.03
2843.48
2852.36
2857.78
2859.54
2860.61
2862.48
2865.03
2866.5
2867.06
2867.66
2868.91
2870.85
2873.34
2876.25
2879.32
2882.38
2885.47
2888.73
2892.25
2896.04
2900.09
2904.39
2908.97
2913.85
2919.02
2924.42
2930.02
2935.85
2941.94
2948.3
2954.92
2961.79
2968.89
2976.24
2983.84
2991.72
2999.88
3008.33
3017.02
3025.93
3035.04
3044.36
3053.91
3063.68
3073.67
3083.88
3094.31
3104.96
3115.81
3126.88
3138.13
3149.56
3161.17
3172.94
3184.88
3196.96
3209.16
3221.46
3233.85
3246.3
3258.78
3271.25
3283.69
3296.03
3308.23
3320.23
3331.95
3343.32
3354.18
3364.45
3373.9
3382.39
3389.58
3395.12
3398.8
3400.17
3398.49
3392.51
3382.04
3364.96
3341.04
3305.35
3255.94
3187.97
3098.58
2977.33
2790
2790
2790
2790
2790
2790
2790
2790
2790
2790
2790
2790
2790
2790
2790
2790
2790
2790
2790
2790
2790
2790
2790.01
2790.57
2798.65
2830.09
2868.74
2886.51
2888.92
2884.63
2871.26
2858.38
2848.59
2842.89
2841.76
2846.04
2855.62
2861.48
2863.49
2864.77
2866.82
2869.5
2871.01
2871.57
2872.18
2873.5
2875.57
2878.22
2881.31
2884.59
2887.83
2891.08
2894.49
2898.15
2902.08
2906.25
2910.67
2915.35
2920.33
2925.59
2931.09
2936.79
2942.72
2948.92
2955.4
2962.16
2969.17
2976.43
2983.93
2991.69
2999.73
3008.07
3016.7
3025.59
3034.71
3044.05
3053.6
3063.39
3073.41
3083.68
3094.18
3104.91
3115.88
3127.08
3138.51
3150.16
3162.01
3174.06
3186.32
3198.77
3211.4
3224.21
3237.16
3250.26
3263.48
3276.81
3290.21
3303.67
3317.14
3330.59
3343.97
3357.23
3370.32
3383.14
3395.61
3407.56
3418.9
3429.39
3438.86
3446.84
3452.99
3456.9
3458.08
3455.19
3446.79
3432.48
3408.33
3372.3
3315.24
3237.6
3122.75
2790
2790
2790
2790
2790
2790
2790
2790
2790
2790
2790
2790
2790
2790
2790
2790
2790
2790
2790
2790
2790
2790
2790.01
2790.56
2798.52
2829.83
2868.96
2887.21
2889.92
2885.5
2872.1
2859.27
2849.68
2844.31
2843.51
2848.86
2859.04
2865.04
2867.12
2868.52
2870.76
2873.55
2875.12
2875.72
2876.4
2877.85
2880.06
2882.88
2886.14
2889.58
2892.98
2896.38
2899.96
2903.78
2907.86
2912.18
2916.72
2921.52
2926.6
2931.96
2937.55
2943.35
2949.37
2955.67
2962.26
2969.14
2976.27
2983.66
2991.31
2999.21
3007.4
3015.9
3024.7
3033.77
3043.07
3052.6
3062.37
3072.37
3082.62
3093.13
3103.89
3114.89
3126.15
3137.66
3149.41
3161.4
3173.62
3186.07
3198.74
3211.64
3224.76
3238.08
3251.6
3265.31
3279.19
3293.24
3307.43
3321.75
3336.17
3350.68
3365.22
3379.79
3394.32
3408.77
3423.07
3437.13
3450.84
3464.05
3476.65
3488.29
3498.83
3507.55
3514.26
3518.26
3519.15
3514.88
3504.17
3483.12
3440.73
3380.88
3273.73
2790
2790
2790
2790
2790
2790
2790
2790
2790
2790
2790
2790
2790
2790
2790
2790
2790
2790
2790
2790
2790
2790
2790.01
2790.59
2798.86
2830.94
2870.11
2888.15
2890.71
2885.83
2872.23
2859.61
2850.52
2845.71
2845.36
2852
2862.59
2868.44
2870.39
2871.85
2874.3
2877.19
2878.83
2879.52
2880.35
2881.96
2884.34
2887.33
2890.75
2894.32
2897.84
2901.39
2905.12
2909.12
2913.36
2917.83
2922.51
2927.43
2932.63
2938.09
2943.77
2949.66
2955.77
2962.17
2968.86
2975.85
2983.1
2990.62
2998.38
3006.42
3014.75
3023.39
3032.34
3041.57
3051.04
3060.75
3070.7
3080.9
3091.36
3102.08
3113.07
3124.32
3135.84
3147.61
3159.65
3171.95
3184.5
3197.29
3210.34
3223.63
3237.17
3250.94
3264.95
3279.19
3293.64
3308.3
3323.17
3338.22
3353.45
3368.84
3384.37
3400.02
3415.76
3431.57
3447.39
3463.17
3478.84
3494.31
3509.47
3524.16
3538.24
3551.36
3563.35
3573.18
3580.83
3584.86
3585.4
3576.56
3552.54
3515.51
3433
2790
2790
2790
2790
2790
2790
2790
2790
2790
2790
2790
2790
2790
2790
2790
2790
2790
2790
2790
2790
2790
2790
2790.02
2790.7
2800
2833.55
2872.23
2889.32
2891.29
2885.62
2871.72
2859.47
2851.17
2847.22
2847.42
2855.55
2866.24
2871.69
2873.41
2874.9
2877.55
2880.49
2882.16
2882.97
2884.01
2885.85
2888.43
2891.6
2895.16
2898.84
2902.47
2906.15
2910.03
2914.18
2918.59
2923.21
2928.04
2933.1
2938.41
2943.97
2949.75
2955.72
2961.93
2968.42
2975.21
2982.3
2989.67
2997.29
3005.17
3013.33
3021.78
3030.56
3039.65
3049.03
3058.66
3068.53
3078.65
3089.03
3099.68
3110.61
3121.81
3133.28
3145.03
3157.05
3169.35
3181.93
3194.77
3207.87
3221.25
3234.89
3248.8
3262.98
3277.42
3292.11
3307.06
3322.26
3337.71
3353.4
3369.32
3385.47
3401.82
3418.39
3435.14
3452.07
3469.15
3486.35
3503.62
3520.93
3538.19
3555.33
3572.2
3588.65
3604.47
3619.22
3632.7
3643.58
3652.48
3656.12
3651.53
3633.22
3589.24
2790
2790
2790
2790
2790
2790
2790
2790
2790
2790
2790
2790
2790
2790
2790
2790
2790
2790
2790
2790
2790
2790
2790.02
2790.95
2801.99
2837.47
2874.94
2890.58
2891.69
2884.87
2870.6
2858.87
2851.67
2848.75
2849.84
2859.59
2869.99
2874.84
2876.31
2877.85
2880.69
2883.59
2885.22
2886.16
2887.44
2889.53
2892.36
2895.72
2899.42
2903.18
2906.88
2910.65
2914.66
2918.97
2923.53
2928.3
2933.27
2938.47
2943.91
2949.59
2955.47
2961.54
2967.84
2974.43
2981.32
2988.51
2995.98
3003.71
3011.7
3019.96
3028.54
3037.44
3046.66
3056.17
3065.95
3075.97
3086.25
3096.8
3107.62
3118.73
3130.13
3141.81
3153.78
3166.03
3178.58
3191.41
3204.52
3217.91
3231.58
3245.55
3259.8
3274.34
3289.17
3304.28
3319.67
3335.35
3351.31
3367.56
3384.07
3400.87
3417.94
3435.28
3452.88
3470.75
3488.86
3507.22
3525.78
3544.55
3563.47
3582.51
3601.57
3620.6
3639.43
3657.96
3675.87
3692.82
3708.29
3720.76
3729.58
3728.46
3720.59
2790
2790
2790
2790
2790
2790
2790
2790
2790
2790
2790
2790
2790
2790
2790
2790
2790
2790
2790
2790
2790
2790
2790.04
2791.41
2804.95
2842.54
2878
2891.82
2891.9
2883.62
2869.03
2857.92
2851.97
2850.14
2852.77
2864.09
2873.83
2877.92
2879.18
2880.87
2883.87
2886.65
2888.19
2889.22
2890.75
2893.12
2896.2
2899.75
2903.57
2907.38
2911.11
2914.95
2919.06
2923.49
2928.18
2933.09
2938.21
2943.54
2949.12
2954.91
2960.89
2967.06
2973.46
2980.15
2987.16
2994.45
3002.02
3009.85
3017.94
3026.31
3035
3044.02
3053.37
3063.02
3072.92
3083.09
3093.51
3104.21
3115.2
3126.49
3138.07
3149.94
3162.11
3174.58
3187.35
3200.41
3213.77
3227.42
3241.37
3255.63
3270.19
3285.06
3300.24
3315.72
3331.51
3347.61
3364.02
3380.75
3397.79
3415.15
3432.82
3450.81
3469.12
3487.77
3506.73
3526.02
3545.6
3565.51
3585.68
3606.16
3626.84
3647.74
3668.71
3689.73
3710.51
3730.99
3750.54
3769.25
3784.87
3794.92
3806.19
2790
2790
2790
2790
2790
2790
2790
2790
2790
2790
2790
2790
2790
2790
2790
2790
2790
2790
2790
2790
2790
2790
2790.07
2792.18
2809
2848.54
2881.03
2892.89
2891.96
2881.87
2867.13
2856.85
2852.01
2851.44
2856.24
2868.83
2877.65
2880.93
2882.08
2883.98
2887.11
2889.72
2891.12
2892.23
2894
2896.64
2899.95
2903.67
2907.56
2911.37
2915.11
2918.99
2923.19
2927.73
2932.54
2937.59
2942.84
2948.32
2954.03
2959.94
2966.03
2972.3
2978.81
2985.6
2992.71
3000.11
3007.78
3015.7
3023.89
3032.36
3041.16
3050.3
3059.77
3069.54
3079.57
3089.87
3100.43
3111.28
3122.43
3133.88
3145.64
3157.7
3170.06
3182.73
3195.71
3209
3222.59
3236.49
3250.7
3265.23
3280.08
3295.25
3310.74
3326.56
3342.7
3359.18
3375.99
3393.14
3410.63
3428.46
3446.64
3465.18
3484.07
3503.34
3522.96
3542.97
3563.32
3584.07
3605.13
3626.58
3648.3
3670.34
3692.56
3714.95
3737.29
3759.45
3780.85
3801.35
3818.88
3833.33
3847.06
2790
2790
2790
2790
2790
2790
2790
2790
2790
2790
2790
2790
2790
2790
2790
2790
2790
2790
2790
2790
2790
2790
2790.15
2793.42
2814.25
2855.12
2883.77
2893.48
2891.73
2879.76
2865.09
2855.98
2851.97
2852.67
2860.22
2873.47
2881.23
2883.77
2884.92
2887.12
2890.33
2892.71
2893.99
2895.2
2897.21
2900.1
2903.62
2907.45
2911.36
2915.13
2918.86
2922.77
2927.05
2931.68
2936.61
2941.77
2947.17
2952.78
2958.62
2964.66
2970.85
2977.23
2983.85
2990.77
2997.98
3005.48
3013.25
3021.26
3029.54
3038.11
3047.02
3056.27
3065.86
3075.73
3085.88
3096.3
3106.99
3117.98
3129.28
3140.89
3152.81
3165.03
3177.58
3190.43
3203.61
3217.1
3230.9
3245.03
3259.47
3274.25
3289.36
3304.8
3320.58
3336.69
3353.15
3369.96
3387.12
3404.63
3422.5
3440.74
3459.34
3478.31
3497.65
3517.38
3537.48
3557.98
3578.83
3600.09
3621.65
3643.6
3665.78
3688.24
3710.8
3733.48
3755.83
3777.69
3798.66
3818.32
3834.79
3846.4
3856.4
2790
2790
2790
2790
2790
2790
2790
2790
2790
2790
2790
2790
2790
2790
2790
2790
2790
2790
2790
2790
2790
2790.01
2790.29
2795.33
2820.65
2861.87
2886.21
2893.5
2890.92
2877.32
2863.13
2855.45
2852.31
2854.19
2864.51
2877.68
2884.32
2886.29
2887.57
2890.12
2893.33
2895.46
2896.65
2898
2900.26
2903.4
2907.1
2911.02
2914.93
2918.65
2922.36
2926.31
2930.66
2935.38
2940.41
2945.69
2951.2
2956.95
2962.91