/*--------------------------------*- C++ -*----------------------------------*\
| =========                 |                                                 |
| \\      /  F ield         | OpenFOAM: The Open Source CFD Toolbox           |
|  \\    /   O peration     | Version:  2412                                  |
|   \\  /    A nd           | Website:  www.openfoam.com                      |
|    \\/     M anipulation  |                                                 |
\*---------------------------------------------------------------------------*/
FoamFile
{
    version     2.0;
    format      ascii;
    arch        "LSB;label=32;scalar=64";
    class       volScalarField;
    location    "0.023";
    object      rho;
}
// * * * * * * * * * * * * * * * * * * * * * * * * * * * * * * * * * * * * * //

dimensions      [1 -3 0 0 0 0 0];

internalField   nonuniform List<scalar> 
78650
(
0.042133
0.042133
0.042133
0.042133
0.042133
0.042133
0.042133
0.042133
0.042133
0.042133
0.042133
0.042133
0.042133
0.042133
0.042133
0.042133
0.0421332
0.0421375
0.042185
0.0423647
0.0426272
0.0427996
0.0428303
0.0428155
0.0427027
0.0425314
0.0423704
0.0422295
0.04211
0.042018
0.0419636
0.0419368
0.0419163
0.0418898
0.0418532
0.041812
0.0417762
0.0417466
0.0417176
0.0416867
0.0416567
0.0416298
0.0416069
0.041587
0.0415693
0.0415533
0.0415385
0.0415253
0.0415134
0.0415027
0.0414933
0.0414855
0.0414792
0.0414747
0.0414714
0.041469
0.0414669
0.0414651
0.0414635
0.0414619
0.04146
0.0414574
0.0414536
0.0414483
0.0414414
0.0414328
0.041422
0.0414083
0.0413911
0.0413692
0.0413421
0.0413092
0.04127
0.041224
0.0411703
0.0411081
0.0410364
0.0409541
0.0408597
0.0407522
0.0406301
0.0404921
0.0403367
0.0401617
0.0399651
0.0397447
0.0394995
0.0392284
0.0389309
0.038603
0.038243
0.0378449
0.0374143
0.0369464
0.0364481
0.0359116
0.0353332
0.0347144
0.0340679
0.0334034
0.0327103
0.031979
0.0312197
0.0304526
0.0296628
0.0288991
0.0281323
0.0273891
0.0266896
0.0260139
0.0254133
0.0248465
0.0242974
0.0237806
0.0233118
0.0228698
0.0224689
0.0220959
0.0217486
0.0214282
0.0208893
0.042133
0.042133
0.042133
0.042133
0.042133
0.042133
0.042133
0.042133
0.042133
0.042133
0.042133
0.042133
0.042133
0.042133
0.042133
0.042133
0.0421331
0.0421354
0.0421673
0.0423171
0.0425818
0.042786
0.0428371
0.0428353
0.0427495
0.0425853
0.0424183
0.0422717
0.0421477
0.0420514
0.0419926
0.0419657
0.0419483
0.0419269
0.0418954
0.041857
0.0418219
0.0417934
0.0417659
0.0417363
0.041707
0.0416803
0.041658
0.0416388
0.0416222
0.0416076
0.0415944
0.0415829
0.0415727
0.0415638
0.0415564
0.0415507
0.0415467
0.0415445
0.0415439
0.0415443
0.0415452
0.0415464
0.041548
0.0415498
0.0415516
0.0415529
0.0415533
0.0415526
0.0415506
0.0415471
0.0415419
0.0415342
0.0415236
0.0415091
0.0414899
0.0414655
0.0414355
0.0413994
0.0413565
0.041306
0.0412471
0.0411787
0.0410995
0.0410084
0.0409041
0.0407855
0.040651
0.0404986
0.0403264
0.0401325
0.0399157
0.0396739
0.0394055
0.039107
0.0387783
0.0384158
0.0380222
0.03759
0.0371219
0.0366122
0.0360655
0.0354826
0.0348596
0.0341995
0.0335121
0.0328133
0.0320968
0.0313789
0.0306245
0.0298734
0.029122
0.0283528
0.0276263
0.0269012
0.0262062
0.0255617
0.02493
0.02436
0.0238383
0.0233479
0.0228852
0.0224303
0.0220123
0.0216239
0.0209634
0.042133
0.042133
0.042133
0.042133
0.042133
0.042133
0.042133
0.042133
0.042133
0.042133
0.042133
0.042133
0.042133
0.042133
0.042133
0.042133
0.0421331
0.0421342
0.0421544
0.0422731
0.0425293
0.0427631
0.0428409
0.0428551
0.042793
0.0426388
0.0424658
0.0423137
0.0421862
0.0420863
0.0420233
0.0419959
0.0419813
0.0419644
0.0419383
0.0419031
0.0418688
0.0418409
0.0418148
0.0417864
0.0417577
0.0417314
0.0417095
0.041691
0.0416758
0.0416625
0.0416511
0.0416414
0.0416329
0.041626
0.0416206
0.041617
0.0416153
0.0416156
0.0416176
0.0416207
0.0416246
0.0416289
0.0416337
0.041639
0.0416444
0.0416497
0.0416542
0.041658
0.0416607
0.0416622
0.0416625
0.0416607
0.0416566
0.0416492
0.0416377
0.0416216
0.0416003
0.0415737
0.0415411
0.0415018
0.0414548
0.0413994
0.0413344
0.0412587
0.0411709
0.04107
0.0409546
0.0408231
0.0406734
0.0405037
0.0403124
0.0400977
0.0398585
0.0395918
0.0392967
0.0389695
0.0386116
0.0382185
0.0377937
0.0373314
0.0368312
0.0362902
0.0357048
0.0350758
0.0343951
0.0336773
0.0329354
0.0321784
0.0314246
0.0306422
0.0298976
0.0291174
0.0283658
0.0276405
0.0269025
0.0262276
0.025562
0.0249479
0.0243844
0.0238415
0.0233435
0.0228543
0.0223987
0.0219724
0.0212289
0.042133
0.042133
0.042133
0.042133
0.042133
0.042133
0.042133
0.042133
0.042133
0.042133
0.042133
0.042133
0.042133
0.042133
0.042133
0.042133
0.0421331
0.0421336
0.0421454
0.0422337
0.0424706
0.0427308
0.0428418
0.0428733
0.0428324
0.0426922
0.042515
0.0423581
0.0422278
0.0421244
0.042057
0.0420281
0.0420155
0.0420028
0.041982
0.0419505
0.0419169
0.0418892
0.0418641
0.0418369
0.041809
0.041783
0.0417617
0.041744
0.0417299
0.0417182
0.0417087
0.0417008
0.0416942
0.0416891
0.0416858
0.0416844
0.041685
0.0416877
0.041692
0.0416978
0.0417046
0.0417119
0.0417199
0.0417284
0.0417374
0.0417463
0.0417549
0.041763
0.0417703
0.0417766
0.0417819
0.0417859
0.0417877
0.041787
0.0417829
0.0417749
0.041762
0.0417446
0.0417217
0.041693
0.0416577
0.0416149
0.0415636
0.0415029
0.0414313
0.041348
0.0412517
0.0411409
0.0410138
0.0408685
0.0407034
0.0405165
0.0403062
0.04007
0.0398077
0.0395163
0.0391956
0.0388392
0.0384481
0.0380174
0.0375502
0.0370464
0.0365037
0.0359257
0.0353093
0.0346475
0.0339466
0.0331901
0.0324295
0.0316101
0.0307949
0.0299848
0.029155
0.0283872
0.0276
0.0268506
0.0261454
0.0254664
0.0248471
0.0242624
0.0237297
0.0232165
0.0227421
0.0223056
0.0215806
0.042133
0.042133
0.042133
0.042133
0.042133
0.042133
0.042133
0.042133
0.042133
0.042133
0.042133
0.042133
0.042133
0.042133
0.042133
0.042133
0.042133
0.0421333
0.0421396
0.0422006
0.042408
0.042687
0.0428397
0.0428903
0.0428633
0.0427434
0.0425663
0.0424059
0.042273
0.0421655
0.0420936
0.0420622
0.042051
0.0420417
0.0420261
0.0419988
0.0419662
0.0419383
0.0419139
0.0418879
0.0418609
0.0418354
0.0418147
0.041798
0.0417853
0.0417752
0.0417677
0.0417618
0.041757
0.041754
0.0417528
0.0417536
0.0417565
0.0417613
0.0417682
0.0417767
0.0417863
0.0417966
0.0418076
0.0418193
0.0418317
0.0418443
0.0418568
0.041869
0.0418807
0.0418918
0.0419023
0.0419116
0.0419193
0.0419248
0.0419275
0.0419273
0.0419228
0.0419143
0.0419007
0.0418822
0.0418577
0.0418269
0.0417885
0.0417417
0.0416852
0.0416182
0.0415394
0.0414476
0.0413412
0.0412182
0.041077
0.0409158
0.0407334
0.0405279
0.040298
0.0400397
0.0397516
0.0394292
0.0390742
0.038682
0.0382532
0.0377843
0.0372723
0.0367232
0.0361319
0.035504
0.0348422
0.0341427
0.0334173
0.0326583
0.0318516
0.0310639
0.0302232
0.0293963
0.0285756
0.0277577
0.0269904
0.0262257
0.0254978
0.0248073
0.0241629
0.023552
0.0229946
0.0224923
0.0215813
0.042133
0.042133
0.042133
0.042133
0.042133
0.042133
0.042133
0.042133
0.042133
0.042133
0.042133
0.042133
0.042133
0.042133
0.042133
0.042133
0.042133
0.0421331
0.0421362
0.0421748
0.0423448
0.0426304
0.0428304
0.0429032
0.0428862
0.0427933
0.0426226
0.0424592
0.0423225
0.0422103
0.0421339
0.0420985
0.0420877
0.042081
0.0420702
0.0420473
0.0420159
0.0419877
0.0419639
0.0419394
0.0419136
0.041889
0.041869
0.0418535
0.0418422
0.0418338
0.0418285
0.0418245
0.0418217
0.0418207
0.0418217
0.0418246
0.0418296
0.0418368
0.0418461
0.0418572
0.0418695
0.0418826
0.0418966
0.0419114
0.041927
0.0419431
0.0419594
0.0419756
0.0419916
0.0420072
0.0420224
0.0420369
0.0420504
0.0420622
0.0420714
0.0420779
0.0420812
0.0420814
0.042077
0.0420684
0.0420544
0.0420349
0.0420089
0.0419756
0.0419339
0.0418828
0.0418214
0.0417484
0.0416624
0.0415617
0.0414446
0.0413094
0.0411546
0.0409781
0.0407784
0.0405522
0.0402983
0.0400126
0.0396957
0.039343
0.0389549
0.0385276
0.0380586
0.0375502
0.0369939
0.0363972
0.0357532
0.0350656
0.0343242
0.0335716
0.0327775
0.0319858
0.0311792
0.0303357
0.0295325
0.0286979
0.0278986
0.0271161
0.0263556
0.0256506
0.0249765
0.0243234
0.0236972
0.0231156
0.0220745
0.042133
0.042133
0.042133
0.042133
0.042133
0.042133
0.042133
0.042133
0.042133
0.042133
0.042133
0.042133
0.042133
0.042133
0.042133
0.042133
0.042133
0.0421331
0.0421344
0.0421565
0.0422854
0.0425619
0.042807
0.0429089
0.0429039
0.0428417
0.0426833
0.0425162
0.0423748
0.0422582
0.0421776
0.0421367
0.0421251
0.0421201
0.042113
0.0420949
0.0420654
0.0420372
0.0420141
0.0419913
0.0419672
0.0419439
0.0419248
0.0419106
0.0419007
0.0418943
0.0418911
0.0418893
0.0418886
0.0418897
0.0418926
0.0418977
0.041905
0.0419144
0.041926
0.0419396
0.0419545
0.0419705
0.0419873
0.0420051
0.0420239
0.0420434
0.0420634
0.0420834
0.0421035
0.0421235
0.0421434
0.0421629
0.0421818
0.0421995
0.0422153
0.0422289
0.0422395
0.0422471
0.0422515
0.0422523
0.0422485
0.0422399
0.0422256
0.0422048
0.0421768
0.0421405
0.042095
0.0420392
0.0419719
0.0418916
0.0417965
0.0416851
0.0415559
0.0414073
0.0412375
0.0410433
0.0408237
0.0405754
0.040299
0.0399898
0.0396475
0.0392664
0.038845
0.0383838
0.0378764
0.03733
0.0367298
0.0360845
0.0353979
0.0346544
0.0338703
0.033019
0.0321887
0.0312917
0.0304294
0.0295496
0.028671
0.0278302
0.0270043
0.0262513
0.0255276
0.0248379
0.0241925
0.0236136
0.0225802
0.042133
0.042133
0.042133
0.042133
0.042133
0.042133
0.042133
0.042133
0.042133
0.042133
0.042133
0.042133
0.042133
0.042133
0.042133
0.042133
0.042133
0.042133
0.0421335
0.0421449
0.0422342
0.0424842
0.042765
0.042908
0.042921
0.0428865
0.0427454
0.0425765
0.0424313
0.0423114
0.0422253
0.0421767
0.0421622
0.0421576
0.0421534
0.0421408
0.0421144
0.042087
0.0420649
0.0420442
0.0420222
0.0420006
0.0419826
0.0419698
0.0419613
0.0419568
0.0419557
0.0419564
0.0419576
0.0419605
0.0419655
0.0419727
0.0419822
0.0419938
0.0420077
0.0420235
0.042041
0.0420596
0.0420792
0.0420999
0.0421217
0.0421445
0.0421679
0.0421917
0.0422157
0.0422399
0.0422642
0.0422885
0.0423126
0.0423359
0.0423579
0.0423779
0.0423958
0.0424113
0.0424237
0.0424329
0.0424387
0.0424406
0.0424376
0.0424292
0.0424145
0.0423925
0.0423625
0.0423236
0.0422747
0.0422143
0.0421411
0.0420533
0.0419495
0.0418277
0.0416864
0.0415231
0.0413369
0.0411245
0.0408849
0.0406129
0.0403077
0.0399646
0.0395831
0.0391619
0.0386957
0.0381895
0.0376332
0.0370383
0.0363933
0.0357018
0.0349802
0.0342021
0.0334015
0.032537
0.0316401
0.0307501
0.0298103
0.0289217
0.0280015
0.027136
0.0262781
0.0254479
0.0246688
0.0239781
0.022685
0.042133
0.042133
0.042133
0.042133
0.042133
0.042133
0.042133
0.042133
0.042133
0.042133
0.042133
0.042133
0.042133
0.042133
0.042133
0.042133
0.042133
0.042133
0.0421332
0.0421383
0.0421941
0.0424032
0.0427052
0.0428976
0.0429392
0.042921
0.0428062
0.0426412
0.0424925
0.0423683
0.0422743
0.0422164
0.0421974
0.042193
0.0421913
0.0421846
0.042163
0.0421375
0.0421169
0.0420986
0.042079
0.0420593
0.0420425
0.0420312
0.042024
0.0420213
0.0420227
0.0420254
0.0420287
0.0420335
0.0420405
0.0420498
0.0420613
0.0420751
0.042091
0.0421091
0.042129
0.0421502
0.0421725
0.0421959
0.0422207
0.0422466
0.0422734
0.0423008
0.0423287
0.0423569
0.0423854
0.0424144
0.0424434
0.0424721
0.0425
0.0425264
0.0425511
0.0425737
0.0425941
0.042612
0.0426267
0.0426379
0.0426452
0.0426482
0.0426461
0.0426376
0.0426223
0.0425987
0.0425665
0.0425242
0.0424708
0.0424045
0.042324
0.0422277
0.0421141
0.0419811
0.0418272
0.0416487
0.0414446
0.0412103
0.0409455
0.0406455
0.0403091
0.0399328
0.0395124
0.0390501
0.0385366
0.0379801
0.0373654
0.0367044
0.0359942
0.0352414
0.0344173
0.0335867
0.0327
0.0318412
0.0309346
0.0300427
0.0291286
0.0282335
0.0273558
0.0265014
0.0256758
0.0249158
0.0235231
0.042133
0.042133
0.042133
0.042133
0.042133
0.042133
0.042133
0.042133
0.042133
0.042133
0.042133
0.042133
0.042133
0.042133
0.042133
0.042133
0.042133
0.042133
0.0421331
0.0421351
0.042166
0.0423256
0.0426285
0.0428739
0.0429474
0.0429463
0.0428668
0.0427119
0.0425577
0.0424258
0.0423223
0.0422555
0.0422314
0.0422276
0.0422284
0.0422273
0.0422124
0.0421898
0.0421708
0.042155
0.0421381
0.0421206
0.0421052
0.0420953
0.0420895
0.0420882
0.0420917
0.0420963
0.0421017
0.0421085
0.0421173
0.0421285
0.042142
0.0421578
0.0421757
0.0421958
0.042218
0.0422416
0.0422665
0.0422926
0.04232
0.0423489
0.0423789
0.0424098
0.0424413
0.0424734
0.042506
0.0425392
0.042573
0.0426068
0.0426402
0.0426727
0.0427038
0.0427334
0.0427613
0.042787
0.0428104
0.0428311
0.0428485
0.042862
0.0428711
0.0428754
0.0428744
0.0428661
0.0428506
0.0428258
0.0427917
0.0427463
0.0426886
0.0426168
0.0425296
0.0424246
0.0423004
0.0421541
0.0419844
0.0417876
0.0415635
0.0413076
0.0410184
0.0406916
0.0403244
0.0399167
0.0394601
0.0389583
0.0383994
0.0377959
0.0371301
0.0364058
0.0356319
0.0348005
0.0339104
0.0329608
0.0320131
0.0310033
0.0300375
0.0290484
0.0281052
0.0271923
0.0263339
0.0255741
0.0241447
0.042133
0.042133
0.042133
0.042133
0.042133
0.042133
0.042133
0.042133
0.042133
0.042133
0.042133
0.042133
0.042133
0.042133
0.042133
0.042133
0.042133
0.042133
0.0421331
0.0421337
0.0421487
0.0422584
0.0425394
0.0428307
0.0429459
0.0429706
0.0429233
0.0427838
0.0426217
0.0424815
0.04237
0.0422961
0.0422664
0.0422624
0.0422664
0.04227
0.0422614
0.0422428
0.0422261
0.0422133
0.0421997
0.0421847
0.0421706
0.0421619
0.0421574
0.0421572
0.0421625
0.042169
0.0421764
0.0421851
0.0421957
0.0422087
0.0422241
0.0422417
0.0422615
0.0422835
0.0423078
0.0423338
0.0423611
0.0423897
0.0424199
0.0424516
0.0424847
0.0425188
0.0425539
0.0425897
0.0426262
0.0426636
0.0427018
0.0427405
0.0427792
0.0428174
0.0428548
0.042891
0.0429259
0.0429592
0.0429907
0.0430201
0.0430469
0.0430707
0.043091
0.0431067
0.0431176
0.0431231
0.0431233
0.0431148
0.0430986
0.0430721
0.0430351
0.0429858
0.0429232
0.0428452
0.0427504
0.042636
0.0425007
0.0423413
0.042157
0.0419432
0.041698
0.0414167
0.0410968
0.0407363
0.0403291
0.0398774
0.0393703
0.0388168
0.0382033
0.0375421
0.0368224
0.0360432
0.0352248
0.0343269
0.033427
0.0324276
0.0314444
0.0303773
0.0293505
0.0283222
0.0272985
0.0263716
0.0246193
0.042133
0.042133
0.042133
0.042133
0.042133
0.042133
0.042133
0.042133
0.042133
0.042133
0.042133
0.042133
0.042133
0.042133
0.042133
0.042133
0.042133
0.042133
0.042133
0.0421332
0.0421396
0.0422065
0.0424443
0.0427665
0.0429382
0.0429949
0.0429679
0.0428496
0.0426844
0.0425387
0.0424213
0.0423408
0.0423038
0.042298
0.0423048
0.0423135
0.0423102
0.0422967
0.042283
0.0422734
0.0422634
0.0422513
0.0422385
0.0422307
0.0422272
0.042228
0.0422348
0.042243
0.0422523
0.0422628
0.0422751
0.0422898
0.0423068
0.0423261
0.0423476
0.0423714
0.0423976
0.0424258
0.0424555
0.0424866
0.0425192
0.0425536
0.0425896
0.0426269
0.0426652
0.0427046
0.0427449
0.0427862
0.0428286
0.0428718
0.0429155
0.0429592
0.0430023
0.0430448
0.0430863
0.0431268
0.043166
0.0432036
0.0432393
0.0432727
0.0433032
0.0433305
0.0433538
0.0433722
0.0433854
0.0433928
0.0433941
0.0433863
0.0433696
0.0433419
0.0433026
0.0432498
0.0431821
0.0430971
0.0429935
0.0428681
0.0427201
0.0425449
0.0423409
0.0421035
0.0418304
0.0415182
0.0411619
0.0407614
0.0403071
0.0398043
0.0392402
0.0386257
0.037943
0.0371964
0.0363866
0.035525
0.034593
0.0336192
0.0326257
0.031595
0.0305669
0.029564
0.0285542
0.0276062
0.0258369
0.042133
0.042133
0.042133
0.042133
0.042133
0.042133
0.042133
0.042133
0.042133
0.042133
0.042133
0.042133
0.042133
0.042133
0.042133
0.042133
0.042133
0.042133
0.042133
0.0421331
0.0421354
0.0421714
0.0423531
0.0426829
0.0429211
0.0430091
0.042997
0.0429105
0.04275
0.0425997
0.0424763
0.0423881
0.0423422
0.0423332
0.0423425
0.0423579
0.0423596
0.0423516
0.0423408
0.0423338
0.0423275
0.0423187
0.0423074
0.0423004
0.0422976
0.0422993
0.0423073
0.042317
0.0423281
0.0423405
0.0423545
0.0423707
0.0423894
0.0424103
0.0424334
0.042459
0.042487
0.0425173
0.0425493
0.0425828
0.0426179
0.0426549
0.0426936
0.0427339
0.0427756
0.0428183
0.0428622
0.0429073
0.0429537
0.0430012
0.0430496
0.0430984
0.0431471
0.0431955
0.0432433
0.0432905
0.0433369
0.0433822
0.0434262
0.0434685
0.0435087
0.0435463
0.0435807
0.0436115
0.0436381
0.0436593
0.0436747
0.0436836
0.0436857
0.043678
0.0436606
0.0436314
0.0435893
0.0435324
0.0434593
0.043367
0.0432544
0.0431175
0.0429552
0.042763
0.0425388
0.0422786
0.0419782
0.0416362
0.0412445
0.0408057
0.040308
0.0397565
0.0391348
0.0384545
0.0377037
0.0368811
0.03599
0.035036
0.033999
0.0329172
0.0317334
0.0305755
0.0294282
0.0283973
0.0264004
0.042133
0.042133
0.042133
0.042133
0.042133
0.042133
0.042133
0.042133
0.042133
0.042133
0.042133
0.042133
0.042133
0.042133
0.042133
0.042133
0.042133
0.042133
0.042133
0.0421331
0.0421338
0.0421508
0.0422754
0.0425852
0.0428843
0.0430127
0.0430172
0.0429663
0.0428186
0.0426628
0.0425323
0.0424364
0.042382
0.0423698
0.0423804
0.0424035
0.0424112
0.0424067
0.042398
0.0423933
0.0423904
0.0423855
0.0423761
0.0423695
0.0423674
0.0423697
0.0423787
0.04239
0.0424031
0.0424174
0.0424331
0.042451
0.0424712
0.0424937
0.0425184
0.0425456
0.0425754
0.0426077
0.0426419
0.0426777
0.0427152
0.0427546
0.042796
0.0428392
0.0428838
0.0429298
0.0429771
0.0430258
0.0430759
0.0431275
0.0431802
0.0432338
0.0432876
0.0433415
0.0433953
0.0434487
0.0435019
0.0435544
0.0436061
0.0436567
0.0437059
0.0437533
0.0437982
0.0438404
0.0438792
0.043914
0.0439443
0.0439688
0.0439869
0.0439979
0.0440013
0.0439945
0.0439767
0.0439459
0.0439007
0.0438388
0.043759
0.0436582
0.0435352
0.0433857
0.0432076
0.0429962
0.042748
0.0424599
0.0421252
0.0417439
0.0413052
0.0408134
0.0402553
0.0396376
0.0389449
0.038187
0.0373608
0.0364665
0.0355042
0.0344664
0.033345
0.0322427
0.0310546
0.0299131
0.0277259
0.042133
0.042133
0.042133
0.042133
0.042133
0.042133
0.042133
0.042133
0.042133
0.042133
0.042133
0.042133
0.042133
0.042133
0.042133
0.042133
0.042133
0.042133
0.042133
0.042133
0.0421333
0.0421403
0.0422168
0.0424829
0.0428229
0.0430053
0.0430379
0.0430132
0.042884
0.0427241
0.0425881
0.0424864
0.0424249
0.0424086
0.0424183
0.0424474
0.0424612
0.0424589
0.0424523
0.0424497
0.04245
0.0424488
0.0424419
0.0424359
0.0424344
0.0424376
0.0424477
0.0424607
0.042476
0.0424924
0.0425099
0.0425294
0.0425511
0.0425752
0.0426016
0.0426304
0.042662
0.0426962
0.0427327
0.0427708
0.0428107
0.0428525
0.0428964
0.0429423
0.0429899
0.0430391
0.0430896
0.0431417
0.0431954
0.0432508
0.0433077
0.0433657
0.0434244
0.0434835
0.0435428
0.0436021
0.0436615
0.0437208
0.0437797
0.0438381
0.0438955
0.0439518
0.0440065
0.044059
0.0441091
0.0441561
0.0441993
0.0442383
0.0442722
0.0442999
0.0443206
0.0443336
0.0443383
0.0443322
0.0443137
0.044281
0.0442324
0.0441657
0.0440795
0.0439699
0.0438346
0.043669
0.04347
0.0432337
0.0429545
0.0426303
0.042252
0.0418222
0.0413287
0.0407731
0.0401381
0.0394356
0.038655
0.0378
0.036853
0.0358108
0.0346969
0.0335227
0.0322967
0.0312092
0.0291826
0.042133
0.042133
0.042133
0.042133
0.042133
0.042133
0.042133
0.042133
0.042133
0.042133
0.042133
0.042133
0.042133
0.042133
0.042133
0.042133
0.042133
0.042133
0.042133
0.042133
0.0421331
0.0421357
0.0421777
0.0423866
0.0427423
0.0429867
0.0430566
0.0430444
0.0429424
0.0427852
0.0426459
0.0425396
0.0424704
0.0424471
0.0424529
0.0424852
0.0425066
0.0425077
0.0425039
0.0425029
0.0425063
0.0425079
0.042504
0.042499
0.0424982
0.042503
0.0425144
0.0425293
0.0425468
0.0425652
0.0425845
0.0426056
0.0426288
0.0426545
0.0426825
0.0427131
0.0427465
0.0427827
0.0428213
0.0428617
0.0429039
0.0429481
0.0429944
0.0430429
0.0430933
0.0431454
0.043199
0.0432543
0.0433113
0.0433702
0.0434309
0.043493
0.0435562
0.0436201
0.0436845
0.0437493
0.0438146
0.04388
0.0439456
0.0440111
0.0440762
0.0441407
0.0442043
0.0442665
0.044327
0.0443853
0.0444409
0.0444931
0.0445413
0.0445849
0.0446231
0.0446547
0.0446786
0.044694
0.0447001
0.0446947
0.044675
0.0446401
0.0445876
0.0445149
0.0444201
0.044299
0.0441489
0.0439655
0.0437441
0.043482
0.0431713
0.0428118
0.0423907
0.0419093
0.0413549
0.0407328
0.0400219
0.0392329
0.0383556
0.0373969
0.0363452
0.0351831
0.0338699
0.0326067
0.0302898
0.042133
0.042133
0.042133
0.042133
0.042133
0.042133
0.042133
0.042133
0.042133
0.042133
0.042133
0.042133
0.042133
0.042133
0.042133
0.042133
0.042133
0.042133
0.042133
0.042133
0.0421331
0.0421339
0.0421548
0.0423049
0.0426504
0.042956
0.0430631
0.0430652
0.042996
0.042848
0.0427051
0.042592
0.0425133
0.0424814
0.0424828
0.0425164
0.0425485
0.0425549
0.0425535
0.0425535
0.0425598
0.0425641
0.0425625
0.0425592
0.0425596
0.0425663
0.0425792
0.0425958
0.0426152
0.0426355
0.0426565
0.042679
0.0427037
0.042731
0.0427608
0.0427932
0.0428284
0.0428665
0.0429072
0.04295
0.0429945
0.0430409
0.0430896
0.0431406
0.0431937
0.0432485
0.0433051
0.0433634
0.0434236
0.0434858
0.0435501
0.0436161
0.0436835
0.0437518
0.043821
0.0438909
0.0439615
0.0440328
0.0441045
0.0441765
0.0442487
0.0443208
0.0443925
0.0444635
0.0445334
0.0446019
0.0446685
0.0447327
0.044794
0.0448516
0.044905
0.0449534
0.0449961
0.0450316
0.0450587
0.0450765
0.0450839
0.0450792
0.0450584
0.0450211
0.0449641
0.0448848
0.0447805
0.0446468
0.0444795
0.0442747
0.044025
0.0437282
0.043373
0.0429605
0.0424772
0.0419233
0.0412822
0.0405637
0.0397511
0.0388517
0.0378494
0.0367355
0.0355011
0.0343346
0.0322539
0.042133
0.042133
0.042133
0.042133
0.042133
0.042133
0.042133
0.042133
0.042133
0.042133
0.042133
0.042133
0.042133
0.042133
0.042133
0.042133
0.042133
0.042133
0.042133
0.042133
0.042133
0.0421333
0.0421428
0.0422424
0.0425557
0.0429099
0.0430581
0.0430858
0.0430452
0.0429097
0.0427596
0.0426385
0.0425523
0.0425128
0.0425107
0.0425449
0.0425889
0.042602
0.042602
0.0426023
0.042611
0.0426185
0.0426188
0.0426177
0.0426196
0.0426279
0.0426421
0.0426604
0.0426815
0.0427035
0.0427259
0.0427498
0.0427759
0.0428048
0.0428364
0.0428707
0.0429077
0.0429477
0.0429905
0.0430355
0.0430822
0.0431309
0.0431819
0.0432352
0.0432907
0.0433482
0.0434075
0.0434687
0.0435319
0.0435972
0.0436647
0.0437343
0.0438055
0.0438779
0.0439515
0.044026
0.0441016
0.044178
0.0442554
0.0443334
0.0444119
0.0444908
0.0445699
0.0446489
0.0447274
0.0448052
0.0448819
0.0449571
0.0450302
0.0451008
0.0451682
0.0452319
0.0452912
0.0453451
0.0453926
0.0454324
0.0454628
0.045483
0.0454918
0.0454876
0.0454656
0.0454254
0.0453626
0.0452744
0.0451567
0.0450054
0.0448141
0.0445799
0.0442932
0.0439531
0.0435448
0.0430681
0.0425103
0.0418748
0.0411406
0.0403058
0.0393461
0.0382678
0.0370775
0.0357593
0.0335991
0.042133
0.042133
0.042133
0.042133
0.042133
0.042133
0.042133
0.042133
0.042133
0.042133
0.042133
0.042133
0.042133
0.042133
0.042133
0.042133
0.042133
0.042133
0.042133
0.042133
0.042133
0.0421331
0.0421372
0.0421993
0.0424663
0.0428506
0.0430472
0.0431085
0.0430843
0.0429618
0.0428071
0.0426806
0.0425892
0.0425445
0.0425395
0.042573
0.0426282
0.0426485
0.0426493
0.0426497
0.04266
0.0426712
0.0426742
0.0426749
0.0426782
0.0426879
0.0427036
0.0427233
0.0427459
0.0427694
0.0427932
0.0428184
0.042846
0.0428764
0.0429097
0.0429457
0.0429846
0.0430264
0.0430711
0.0431182
0.0431671
0.0432179
0.043271
0.0433265
0.0433844
0.0434443
0.0435063
0.0435702
0.0436361
0.0437043
0.0437749
0.0438476
0.0439224
0.0439986
0.0440762
0.044155
0.0442351
0.0443163
0.0443988
0.0444823
0.0445667
0.0446518
0.0447376
0.0448238
0.0449101
0.0449962
0.0450819
0.0451669
0.0452506
0.0453326
0.0454125
0.0454898
0.0455639
0.045634
0.0456993
0.0457587
0.0458113
0.0458555
0.0458894
0.0459123
0.0459228
0.0459192
0.0458947
0.04585
0.0457793
0.0456805
0.0455475
0.0453774
0.045161
0.0448952
0.0445662
0.0441745
0.043705
0.043155
0.042506
0.0417565
0.040887
0.039924
0.0387958
0.0376102
0.0356527
0.042133
0.042133
0.042133
0.042133
0.042133
0.042133
0.042133
0.042133
0.042133
0.042133
0.042133
0.042133
0.042133
0.042133
0.042133
0.042133
0.042133
0.042133
0.042133
0.042133
0.042133
0.0421331
0.0421348
0.0421721
0.0423891
0.042784
0.0430357
0.0431253
0.0431103
0.0430062
0.0428498
0.0427197
0.0426255
0.0425769
0.0425693
0.0426006
0.0426652
0.0426926
0.0426948
0.0426958
0.0427076
0.0427225
0.0427289
0.0427314
0.0427363
0.0427471
0.042764
0.0427849
0.0428089
0.0428339
0.0428592
0.0428856
0.0429146
0.0429465
0.0429813
0.043019
0.0430595
0.0431029
0.0431494
0.0431983
0.0432493
0.043302
0.0433571
0.0434147
0.0434747
0.0435369
0.0436013
0.0436676
0.0437362
0.043807
0.0438803
0.043956
0.0440339
0.0441136
0.0441949
0.0442776
0.0443617
0.0444473
0.0445343
0.0446227
0.0447124
0.0448031
0.0448949
0.0449875
0.0450807
0.0451743
0.0452681
0.0453618
0.045455
0.0455473
0.0456384
0.0457278
0.0458151
0.0458998
0.045981
0.0460579
0.0461297
0.046195
0.046253
0.0463021
0.0463398
0.0463656
0.0463775
0.0463739
0.0463467
0.0462969
0.0462163
0.0461034
0.0459491
0.0457499
0.0454927
0.0451763
0.0447831
0.0443127
0.0437511
0.0430887
0.0423046
0.0413884
0.0402958
0.0390938
0.0372934
0.042133
0.042133
0.042133
0.042133
0.042133
0.042133
0.042133
0.042133
0.042133
0.042133
0.042133
0.042133
0.042133
0.042133
0.042133
0.042133
0.042133
0.042133
0.042133
0.042133
0.042133
0.0421331
0.0421338
0.0421562
0.0423281
0.0427177
0.0430226
0.0431359
0.0431282
0.0430429
0.0428885
0.0427567
0.0426609
0.0426081
0.0425977
0.0426266
0.0426987
0.0427335
0.0427389
0.0427415
0.042755
0.0427737
0.0427835
0.0427878
0.0427937
0.0428055
0.0428233
0.0428454
0.0428708
0.0428974
0.0429241
0.042952
0.0429822
0.0430154
0.0430516
0.0430907
0.0431326
0.0431775
0.0432254
0.0432761
0.0433287
0.0433833
0.0434401
0.0434995
0.0435615
0.0436258
0.0436924
0.0437611
0.0438319
0.0439052
0.0439811
0.0440595
0.0441403
0.0442231
0.0443076
0.0443938
0.0444817
0.0445712
0.0446624
0.0447552
0.0448496
0.0449454
0.0450425
0.0451409
0.0452403
0.0453406
0.0454415
0.0455429
0.0456445
0.0457459
0.0458468
0.0459468
0.0460458
0.0461431
0.0462383
0.0463306
0.0464192
0.0465032
0.0465818
0.0466535
0.0467175
0.0467718
0.0468137
0.0468425
0.0468556
0.0468508
0.0468179
0.0467592
0.0466645
0.0465325
0.0463507
0.0461169
0.045813
0.0454386
0.0449744
0.0444093
0.0437237
0.04289
0.0419118
0.0407422
0.0391401
0.042133
0.042133
0.042133
0.042133
0.042133
0.042133
0.042133
0.042133
0.042133
0.042133
0.042133
0.042133
0.042133
0.042133
0.042133
0.042133
0.042133
0.042133
0.042133
0.042133
0.042133
0.042133
0.0421334
0.0421472
0.0422833
0.0426583
0.0430052
0.0431429
0.0431421
0.0430739
0.0429235
0.0427906
0.0426928
0.0426355
0.0426227
0.0426509
0.0427301
0.0427728
0.0427825
0.0427878
0.0428033
0.0428255
0.0428381
0.0428437
0.0428502
0.0428625
0.0428812
0.0429045
0.0429314
0.0429597
0.0429881
0.0430174
0.0430489
0.0430833
0.0431208
0.0431611
0.0432042
0.0432503
0.0432995
0.0433516
0.0434058
0.0434619
0.0435203
0.0435814
0.0436451
0.0437113
0.0437798
0.0438506
0.0439237
0.0439992
0.0440773
0.0441582
0.0442416
0.0443272
0.0444147
0.0445041
0.0445952
0.0446882
0.0447832
0.0448799
0.0449785
0.0450787
0.0451806
0.045284
0.0453889
0.045495
0.0456022
0.0457104
0.0458193
0.0459287
0.0460381
0.0461475
0.0462566
0.0463651
0.0464724
0.0465781
0.0466815
0.0467819
0.0468784
0.0469701
0.0470562
0.0471351
0.0472055
0.0472654
0.0473115
0.0473431
0.0473569
0.0473501
0.0473123
0.0472446
0.047133
0.0469764
0.0467567
0.0464735
0.0461033
0.0456407
0.0450547
0.0443148
0.0434227
0.0423132
0.0408288
0.042133
0.042133
0.042133
0.042133
0.042133
0.042133
0.042133
0.042133
0.042133
0.042133
0.042133
0.042133
0.042133
0.042133
0.042133
0.042133
0.042133
0.042133
0.042133
0.042133
0.042133
0.042133
0.0421333
0.0421424
0.0422529
0.0426106
0.0429868
0.0431475
0.0431554
0.0430996
0.0429535
0.0428196
0.0427191
0.0426585
0.0426443
0.042675
0.0427614
0.0428119
0.0428263
0.0428347
0.0428524
0.0428774
0.0428919
0.042898
0.0429045
0.0429172
0.0429367
0.0429614
0.04299
0.0430203
0.0430506
0.0430814
0.0431143
0.04315
0.0431886
0.04323
0.0432742
0.0433214
0.0433717
0.0434249
0.0434804
0.0435379
0.0435976
0.0436602
0.0437255
0.0437934
0.0438637
0.0439363
0.0440113
0.0440888
0.0441691
0.0442521
0.0443378
0.0444259
0.0445161
0.0446083
0.0447024
0.0447985
0.0448967
0.044997
0.0450992
0.0452034
0.0453095
0.0454174
0.045527
0.0456383
0.045751
0.0458651
0.0459804
0.0460967
0.0462137
0.0463312
0.0464491
0.0465671
0.046685
0.0468022
0.0469182
0.0470326
0.0471447
0.0472537
0.0473589
0.047459
0.0475533
0.0476399
0.0477176
0.0477835
0.0478343
0.0478685
0.0478825
0.0478716
0.0478224
0.0477363
0.0475958
0.0473993
0.0471215
0.04676
0.046272
0.0456339
0.0448321
0.043809
0.0424469
0.042133
0.042133
0.042133
0.042133
0.042133
0.042133
0.042133
0.042133
0.042133
0.042133
0.042133
0.042133
0.042133
0.042133
0.042133
0.042133
0.042133
0.042133
0.042133
0.042133
0.042133
0.042133
0.0421332
0.0421401
0.042234
0.0425768
0.0429724
0.0431505
0.043168
0.0431199
0.0429774
0.0428421
0.0427392
0.0426775
0.0426636
0.0427001
0.042794
0.0428513
0.0428699
0.0428812
0.0429009
0.0429278
0.0429433
0.0429493
0.0429556
0.0429687
0.0429892
0.0430155
0.0430461
0.0430786
0.0431108
0.0431433
0.0431776
0.0432146
0.0432545
0.0432971
0.0433424
0.0433906
0.0434419
0.0434961
0.0435527
0.0436114
0.0436724
0.0437361
0.0438028
0.0438722
0.0439442
0.0440185
0.0440953
0.0441746
0.0442567
0.0443417
0.0444295
0.0445198
0.0446124
0.044707
0.0448038
0.0449026
0.0450038
0.0451071
0.0452126
0.0453203
0.04543
0.0455418
0.0456557
0.0457714
0.0458889
0.0460081
0.046129
0.0462512
0.0463747
0.0464992
0.0466246
0.0467508
0.0468776
0.0470047
0.0471316
0.0472579
0.0473832
0.0475068
0.0476283
0.0477468
0.0478615
0.047971
0.0480745
0.0481697
0.0482551
0.0483272
0.0483827
0.0484194
0.0484329
0.0484152
0.0483544
0.0482484
0.0480757
0.0478352
0.0474752
0.0469692
0.0462597
0.0453139
0.0440346
0.042133
0.042133
0.042133
0.042133
0.042133
0.042133
0.042133
0.042133
0.042133
0.042133
0.042133
0.042133
0.042133
0.042133
0.042133
0.042133
0.042133
0.042133
0.042133
0.042133
0.042133
0.042133
0.0421332
0.0421391
0.042225
0.0425586
0.0429672
0.0431545
0.0431798
0.0431346
0.0429937
0.0428576
0.0427542
0.0426939
0.0426819
0.0427272
0.0428285
0.0428903
0.0429116
0.0429251
0.0429467
0.0429749
0.0429909
0.0429968
0.0430032
0.0430171
0.0430389
0.0430669
0.0430995
0.043134
0.0431681
0.0432023
0.0432382
0.0432767
0.043318
0.0433619
0.0434084
0.0434576
0.0435099
0.0435651
0.0436227
0.0436824
0.0437444
0.0438093
0.0438772
0.0439479
0.0440213
0.0440971
0.0441755
0.0442564
0.0443401
0.0444269
0.0445166
0.0446089
0.0447035
0.0448004
0.0448995
0.0450008
0.0451045
0.0452105
0.0453189