/*--------------------------------*- C++ -*----------------------------------*\
| =========                 |                                                 |
| \\      /  F ield         | OpenFOAM: The Open Source CFD Toolbox           |
|  \\    /   O peration     | Version:  2406                                  |
|   \\  /    A nd           | Website:  www.openfoam.com                      |
|    \\/     M anipulation  |                                                 |
\*---------------------------------------------------------------------------*/
FoamFile
{
    version     2.0;
    format      ascii;
    arch        "LSB;label=32;scalar=64";
    class       volScalarField;
    location    "0.023";
    object      T;
}
// * * * * * * * * * * * * * * * * * * * * * * * * * * * * * * * * * * * * * //

dimensions      [0 0 0 1 0 0 0];

internalField   nonuniform List<scalar> 
78650
(
223.002
223.044
223.295
223.829
224.28
224.466
224.443
224.269
223.877
223.491
223.168
222.881
222.636
222.45
222.348
222.29
222.235
222.156
222.046
221.923
221.817
221.731
221.655
221.58
221.509
221.441
221.375
221.313
221.255
221.201
221.152
221.108
221.067
221.031
220.999
220.972
220.949
220.928
220.906
220.885
220.865
220.846
220.827
220.807
220.786
220.764
220.74
220.712
220.681
220.644
220.6
220.548
220.488
220.419
220.339
220.249
220.148
220.034
219.907
219.764
219.605
219.427
219.228
219.006
218.759
218.486
218.185
217.854
217.491
217.091
216.653
216.176
215.66
215.102
214.495
213.832
213.115
212.349
211.531
210.661
209.738
208.757
207.712
206.605
205.428
204.186
202.885
201.533
200.137
198.724
197.309
195.866
194.359
192.799
191.208
189.677
188.286
186.906
185.546
184.199
182.905
181.701
180.49
179.274
178.058
176.851
175.786
174.867
174.053
173.268
172.494
171.731
171.009
170.365
169.816
169.356
168.949
168.646
168.474
168.474
167.865
223.001
223.027
223.22
223.724
224.236
224.475
224.473
224.356
223.995
223.605
223.278
222.986
222.73
222.533
222.421
222.364
222.318
222.254
222.157
222.04
221.935
221.851
221.777
221.705
221.636
221.569
221.506
221.447
221.393
221.343
221.298
221.259
221.223
221.193
221.167
221.145
221.128
221.112
221.097
221.083
221.069
221.057
221.046
221.035
221.023
221.009
220.994
220.977
220.957
220.931
220.9
220.862
220.816
220.763
220.7
220.628
220.545
220.452
220.347
220.228
220.094
219.943
219.774
219.584
219.371
219.135
218.873
218.583
218.263
217.911
217.525
217.103
216.64
216.133
215.579
214.978
214.332
213.641
212.896
212.093
211.229
210.301
209.313
208.273
207.18
206.038
204.839
203.588
202.281
200.923
199.516
198.105
196.672
195.243
193.815
192.317
190.842
189.358
187.899
186.486
185.062
183.739
182.491
181.288
180.146
178.99
177.889
176.817
175.816
174.872
173.981
173.145
172.352
171.607
170.916
170.298
169.787
169.375
169.122
169.012
168.366
223
223.015
223.156
223.611
224.17
224.476
224.502
224.432
224.112
223.726
223.391
223.091
222.825
222.616
222.496
222.44
222.403
222.353
222.27
222.161
222.057
221.974
221.901
221.831
221.764
221.7
221.639
221.584
221.533
221.487
221.447
221.413
221.383
221.358
221.337
221.322
221.31
221.3
221.291
221.283
221.277
221.272
221.269
221.266
221.262
221.257
221.252
221.245
221.235
221.221
221.202
221.178
221.146
221.108
221.061
221.006
220.942
220.869
220.784
220.688
220.578
220.453
220.312
220.152
219.971
219.769
219.542
219.291
219.012
218.704
218.364
217.989
217.576
217.124
216.632
216.098
215.522
214.9
214.224
213.495
212.711
211.87
210.973
210.025
209.023
207.969
206.852
205.671
204.428
203.13
201.776
200.4
198.994
197.535
196.097
194.6
193.099
191.607
190.082
188.638
187.177
185.739
184.364
182.995
181.722
180.506
179.355
178.251
177.197
176.174
175.195
174.251
173.382
172.591
171.873
171.221
170.64
170.168
169.823
169.591
168.76
223
223.008
223.104
223.493
224.079
224.465
224.531
224.495
224.234
223.856
223.51
223.198
222.922
222.704
222.574
222.52
222.491
222.453
222.386
222.286
222.182
222.099
222.028
221.96
221.894
221.832
221.775
221.723
221.676
221.635
221.6
221.57
221.546
221.526
221.512
221.501
221.495
221.491
221.488
221.486
221.486
221.489
221.493
221.498
221.502
221.506
221.51
221.512
221.512
221.509
221.503
221.491
221.473
221.449
221.418
221.38
221.334
221.279
221.215
221.14
221.053
220.954
220.839
220.708
220.559
220.389
220.199
219.985
219.747
219.482
219.188
218.862
218.502
218.107
217.675
217.203
216.69
216.128
215.515
214.85
214.132
213.358
212.531
211.652
210.718
209.725
208.663
207.545
206.367
205.131
203.847
202.507
201.158
199.747
198.318
196.874
195.39
193.93
192.441
190.952
189.493
188.019
186.609
185.2
183.841
182.55
181.282
180.074
178.932
177.823
176.773
175.748
174.79
173.903
173.122
172.436
171.829
171.314
170.911
170.621
169.616
223
223.004
223.064
223.377
223.967
224.432
224.551
224.552
224.357
223.993
223.63
223.306
223.022
222.797
222.659
222.604
222.581
222.556
222.504
222.415
222.313
222.228
222.157
222.091
222.027
221.968
221.915
221.866
221.824
221.788
221.758
221.733
221.715
221.701
221.691
221.687
221.686
221.687
221.69
221.695
221.701
221.71
221.722
221.735
221.747
221.76
221.772
221.784
221.794
221.802
221.807
221.808
221.803
221.794
221.778
221.755
221.726
221.69
221.645
221.591
221.527
221.451
221.362
221.259
221.138
221
220.843
220.665
220.464
220.239
219.988
219.708
219.397
219.053
218.675
218.258
217.8
217.298
216.751
216.161
215.523
214.835
214.097
213.307
212.458
211.548
210.573
209.542
208.452
207.311
206.115
204.848
203.524
202.156
200.758
199.345
197.911
196.435
194.958
193.459
192.001
190.5
189.03
187.572
186.142
184.776
183.407
182.099
180.867
179.668
178.54
177.433
176.379
175.382
174.467
173.656
172.971
172.408
171.965
171.665
170.522
223
223.002
223.036
223.27
223.831
224.373
224.564
224.607
224.474
224.131
223.752
223.419
223.131
222.899
222.75
222.693
222.676
222.66
222.624
222.546
222.447
222.36
222.289
222.225
222.164
222.108
222.058
222.015
221.977
221.946
221.921
221.902
221.889
221.88
221.877
221.877
221.881
221.888
221.896
221.907
221.92
221.936
221.954
221.975
221.996
222.016
222.037
222.057
222.077
222.096
222.112
222.124
222.133
222.136
222.136
222.129
222.116
222.098
222.071
222.037
221.994
221.941
221.877
221.8
221.708
221.601
221.476
221.333
221.17
220.984
220.775
220.54
220.277
219.984
219.659
219.298
218.901
218.466
217.991
217.476
216.912
216.298
215.633
214.911
214.128
213.287
212.39
211.445
210.444
209.393
208.279
207.11
205.877
204.585
203.252
201.857
200.435
198.961
197.475
195.964
194.477
192.969
191.474
190.025
188.549
187.125
185.702
184.329
183.031
181.742
180.526
179.331
178.187
177.068
175.988
175.011
174.186
173.527
173.054
172.715
171.688
223
223.001
223.018
223.178
223.678
224.284
224.566
224.657
224.575
224.266
223.879
223.539
223.248
223.008
222.85
222.787
222.773
222.765
222.743
222.68
222.584
222.496
222.424
222.361
222.304
222.252
222.207
222.168
222.136
222.11
222.091
222.077
222.069
222.066
222.067
222.073
222.082
222.094
222.108
222.124
222.143
222.166
222.192
222.22
222.248
222.277
222.306
222.336
222.365
222.394
222.42
222.445
222.466
222.483
222.496
222.504
222.508
222.506
222.498
222.484
222.461
222.43
222.389
222.337
222.272
222.193
222.099
221.988
221.859
221.71
221.54
221.347
221.128
220.883
220.608
220.302
219.963
219.588
219.175
218.721
218.221
217.675
217.079
216.431
215.729
214.977
214.175
213.322
212.411
211.439
210.395
209.294
208.132
206.914
205.645
204.327
202.966
201.564
200.133
198.656
197.164
195.649
194.107
192.621
191.09
189.593
188.128
186.684
185.299
183.919
182.619
181.37
180.181
179.008
177.851
176.741
175.719
174.848
174.181
173.674
172.294
223
223
223.008
223.106
223.519
224.16
224.558
224.698
224.649
224.401
224.018
223.671
223.375
223.126
222.959
222.886
222.872
222.87
222.86
222.811
222.722
222.633
222.561
222.501
222.448
222.401
222.361
222.328
222.301
222.281
222.266
222.257
222.254
222.257
222.263
222.273
222.287
222.303
222.323
222.345
222.371
222.4
222.432
222.467
222.504
222.54
222.577
222.615
222.653
222.692
222.729
222.765
222.798
222.828
222.855
222.877
222.896
222.91
222.92
222.923
222.921
222.911
222.893
222.865
222.826
222.774
222.71
222.63
222.535
222.423
222.292
222.14
221.965
221.766
221.54
221.286
221.001
220.684
220.33
219.94
219.509
219.036
218.519
217.954
217.34
216.68
215.969
215.203
214.372
213.476
212.514
211.502
210.427
209.303
208.119
206.879
205.59
204.243
202.86
201.428
199.965
198.5
196.994
195.494
193.957
192.423
190.96
189.452
187.985
186.515
185.107
183.756
182.465
181.223
180.058
178.972
177.983
177.105
176.392
175.845
174.285
223
223
223.003
223.056
223.366
224
224.519
224.722
224.704
224.533
224.169
223.812
223.508
223.253
223.076
222.989
222.972
222.972
222.97
222.937
222.859
222.773
222.702
222.646
222.596
222.554
222.52
222.493
222.472
222.456
222.447
222.443
222.445
222.452
222.463
222.478
222.496
222.518
222.542
222.57
222.602
222.637
222.676
222.719
222.762
222.807
222.852
222.898
222.945
222.993
223.04
223.087
223.132
223.175
223.215
223.251
223.285
223.315
223.341
223.362
223.378
223.388
223.391
223.386
223.372
223.347
223.309
223.26
223.196
223.117
223.021
222.906
222.772
222.616
222.436
222.231
221.999
221.737
221.443
221.116
220.753
220.351
219.907
219.418
218.884
218.302
217.667
216.973
216.218
215.407
214.541
213.624
212.645
211.611
210.51
209.355
208.142
206.874
205.555
204.181
202.755
201.308
199.827
198.316
196.826
195.283
193.791
192.245
190.731
189.24
187.764
186.338
184.917
183.548
182.257
181.05
179.956
178.985
178.194
177.602
176.026
223
223
223.001
223.026
223.235
223.813
224.432
224.729
224.751
224.655
224.324
223.959
223.65
223.391
223.2
223.094
223.068
223.068
223.075
223.058
222.996
222.916
222.848
222.795
222.751
222.714
222.685
222.663
222.647
222.637
222.633
222.633
222.639
222.65
222.666
222.685
222.708
222.734
222.763
222.797
222.834
222.876
222.921
222.971
223.022
223.073
223.126
223.18
223.235
223.292
223.35
223.407
223.464
223.518
223.571
223.621
223.668
223.713
223.755
223.794
223.828
223.857
223.879
223.896
223.904
223.905
223.895
223.874
223.84
223.793
223.732
223.655
223.56
223.446
223.311
223.154
222.971
222.762
222.524
222.256
221.954
221.616
221.24
220.823
220.364
219.858
219.302
218.693
218.033
217.325
216.566
215.753
214.878
213.943
212.938
211.878
210.753
209.576
208.341
207.047
205.694
204.281
202.838
201.331
199.845
198.282
196.713
195.133
193.547
192.046
190.492
188.984
187.449
185.969
184.562
183.229
182.009
180.866
179.854
179.066
176.971
223
223
223
223.011
223.135
223.615
224.297
224.713
224.799
224.751
224.478
224.116
223.801
223.533
223.323
223.195
223.159
223.162
223.178
223.175
223.133
223.062
222.998
222.95
222.91
222.878
222.854
222.838
222.827
222.822
222.821
222.826
222.836
222.851
222.871
222.894
222.921
222.951
222.986
223.025
223.068
223.116
223.168
223.223
223.281
223.341
223.401
223.462
223.526
223.592
223.659
223.727
223.794
223.861
223.926
223.989
224.05
224.109
224.166
224.221
224.272
224.319
224.362
224.399
224.429
224.451
224.466
224.471
224.467
224.45
224.421
224.377
224.318
224.243
224.149
224.035
223.9
223.741
223.556
223.345
223.104
222.831
222.523
222.179
221.796
221.369
220.895
220.377
219.814
219.203
218.539
217.815
217.026
216.175
215.26
214.292
213.261
212.176
211.027
209.822
208.564
207.257
205.913
204.509
203.073
201.599
200.066
198.568
197.032
195.539
193.969
192.415
190.86
189.332
187.884
186.465
185.178
183.98
182.916
182.007
179.698
223
223
223
223.004
223.068
223.427
224.117
224.665
224.826
224.82
224.63
224.286
223.957
223.673
223.443
223.296
223.25
223.254
223.283
223.293
223.268
223.209
223.15
223.107
223.074
223.047
223.027
223.015
223.009
223.008
223.011
223.02
223.033
223.052
223.075
223.103
223.134
223.168
223.207
223.252
223.301
223.354
223.412
223.475
223.539
223.606
223.673
223.742
223.814
223.888
223.964
224.041
224.119
224.197
224.274
224.349
224.423
224.496
224.568
224.638
224.705
224.769
224.83
224.886
224.937
224.982
225.021
225.051
225.072
225.084
225.086
225.076
225.052
225.014
224.959
224.888
224.798
224.686
224.553
224.394
224.209
223.995
223.751
223.473
223.16
222.807
222.414
221.979
221.501
220.972
220.389
219.748
219.048
218.295
217.487
216.623
215.693
214.704
213.648
212.54
211.367
210.133
208.833
207.477
206.065
204.631
203.111
201.591
200.027
198.459
196.863
195.246
193.667
192.078
190.547
189.036
187.646
186.416
185.408
184.619
182.703
223
223
223
223.001
223.03
223.267
223.905
224.568
224.827
224.882
224.77
224.456
224.108
223.808
223.563
223.402
223.343
223.346
223.386
223.412
223.4
223.357
223.304
223.267
223.239
223.216
223.201
223.193
223.19
223.193
223.2
223.212
223.228
223.25
223.277
223.309
223.344
223.383
223.427
223.477
223.532
223.592
223.656
223.724
223.795
223.868
223.943
224.019
224.098
224.181
224.266
224.353
224.441
224.529
224.617
224.705
224.791
224.877
224.963
225.047
225.129
225.21
225.288
225.362
225.433
225.499
225.559
225.612
225.659
225.697
225.726
225.745
225.754
225.751
225.732
225.7
225.651
225.583
225.497
225.388
225.257
225.101
224.917
224.704
224.459
224.179
223.862
223.508
223.11
222.665
222.171
221.627
221.035
220.396
219.702
218.949
218.133
217.259
216.32
215.325
214.261
213.137
211.95
210.708
209.418
208.064
206.667
205.211
203.715
202.16
200.601
198.986
197.385
195.724
194.089
192.434
190.828
189.299
187.922
186.777
184.195
223
223
223
223
223.011
223.149
223.681
224.42
224.812
224.943
224.881
224.611
224.254
223.945
223.691
223.516
223.44
223.436
223.484
223.531
223.534
223.506
223.461
223.427
223.403
223.385
223.374
223.369
223.369
223.375
223.385
223.399
223.419
223.445
223.476
223.512
223.551
223.595
223.644
223.699
223.76
223.826
223.895
223.969
224.046
224.126
224.208
224.291
224.377
224.467
224.561
224.656
224.754
224.853
224.952
225.051
225.149
225.247
225.345
225.443
225.54
225.635
225.729
225.821
225.91
225.995
226.075
226.151
226.221
226.284
226.34
226.388
226.426
226.454
226.47
226.475
226.465
226.441
226.399
226.337
226.256
226.152
226.025
225.871
225.69
225.477
225.233
224.953
224.633
224.272
223.868
223.422
222.932
222.391
221.792
221.136
220.42
219.646
218.806
217.908
216.945
215.925
214.838
213.69
212.478
211.209
209.885
208.512
207.094
205.605
204.117
202.585
201.055
199.454
197.901
196.327
194.852
193.448
192.162
191.067
188.626
223
223
223
223
223.004
223.074
223.471
224.226
224.777
224.978
224.952
224.754
224.406
224.089
223.822
223.631
223.535
223.524
223.577
223.649
223.669
223.654
223.615
223.582
223.563
223.549
223.541
223.539
223.541
223.55
223.563
223.581
223.605
223.635
223.67
223.711
223.755
223.804
223.858
223.918
223.984
224.055
224.13
224.209
224.293
224.379
224.467
224.557
224.651
224.748
224.849
224.954
225.061
225.169
225.279
225.388
225.497
225.607
225.717
225.828
225.938
226.048
226.157
226.264
226.37
226.473
226.573
226.668
226.76
226.846
226.926
226.999
227.065
227.123
227.17
227.207
227.233
227.245
227.246
227.227
227.194
227.14
227.065
226.968
226.846
226.698
226.521
226.311
226.066
225.786
225.469
225.112
224.71
224.256
223.75
223.192
222.58
221.912
221.185
220.402
219.557
218.651
217.676
216.639
215.534
214.372
213.145
211.857
210.508
209.101
207.631
206.122
204.566
202.948
201.272
199.61
197.932
196.425
195.012
193.788
191.093
223
223
223
223
223.001
223.033
223.298
224.003
224.695
224.988
225.003
224.886
224.562
224.231
223.951
223.743
223.632
223.613
223.668
223.766
223.802
223.795
223.761
223.73
223.714
223.704
223.7
223.701
223.706
223.719
223.736
223.758
223.786
223.821
223.861
223.905
223.954
224.008
224.067
224.132
224.203
224.279
224.36
224.444
224.532
224.625
224.719
224.816
224.916
225.021
225.129
225.242
225.357
225.475
225.594
225.713
225.833
225.954
226.075
226.197
226.319
226.442
226.565
226.687
226.809
226.928
227.045
227.16
227.271
227.378
227.481
227.578
227.67
227.755
227.832
227.9
227.959
228.007
228.043
228.066
228.075
228.068
228.042
227.998
227.931
227.841
227.726
227.583
227.411
227.208
226.97
226.694
226.376
226.013
225.605
225.152
224.651
224.099
223.492
222.828
222.102
221.317
220.468
219.558
218.582
217.544
216.435
215.268
214.042
212.763
211.417
209.998
208.529
207.046
205.508
204.039
202.263
200.639
199.111
197.721
194.815
223
223
223
223
223
223.013
223.173
223.776
224.561
224.974
225.054
224.996
224.707
224.363
224.073
223.856
223.733
223.706
223.754
223.872
223.926
223.924
223.898
223.87
223.857
223.852
223.852
223.856
223.865
223.882
223.904
223.931
223.964
224.002
224.047
224.096
224.15
224.208
224.271
224.341
224.417
224.498
224.583
224.672
224.766
224.863
224.964
225.068
225.174
225.285
225.401
225.521
225.645
225.771
225.899
226.027
226.157
226.287
226.419
226.552
226.686
226.821
226.957
227.093
227.228
227.363
227.496
227.628
227.757
227.883
228.006
228.126
228.24
228.35
228.453
228.549
228.638
228.718
228.788
228.848
228.895
228.928
228.947
228.952
228.936
228.902
228.845
228.763
228.657
228.522
228.357
228.157
227.921
227.648
227.337
226.984
226.584
226.136
225.632
225.072
224.453
223.778
223.043
222.247
221.383
220.455
219.457
218.399
217.28
216.106
214.862
213.552
212.181
210.766
209.33
207.84
206.351
204.857
203.401
202.191
199.725
223
223
223
223
223
223.005
223.092
223.567
224.39
224.94
225.1
225.069
224.834
224.49
224.196
223.973
223.835
223.796
223.831
223.961
224.037
224.046
224.028
224.005
223.995
223.994
224
224.008
224.021
224.041
224.067
224.099
224.137
224.18
224.228
224.282
224.34
224.402
224.47
224.544
224.624
224.71
224.799
224.893
224.991
225.094
225.201
225.31
225.423
225.54
225.663
225.79
225.92
226.054
226.191
226.328
226.467
226.606
226.747
226.89
227.034
227.18
227.328
227.476
227.624
227.772
227.92
228.067
228.213
228.357
228.498
228.637
228.773
228.905
229.032
229.154
229.27
229.379
229.481
229.574
229.657
229.729
229.788
229.833
229.864
229.879
229.879
229.851
229.807
229.737
229.639
229.514
229.358
229.17
228.946
228.682
228.373
228.019
227.616
227.162
226.655
226.095
225.477
224.801
224.061
223.259
222.392
221.462
220.462
219.402
218.275
217.084
215.812
214.474
213.072
211.639
210.15
208.705
207.079
205.617
202.955
223
223
223
223
223
223.002
223.046
223.394
224.201
224.887
225.123
225.116
224.946
224.618
224.319
224.086
223.928
223.874
223.898
224.036
224.142
224.165
224.155
224.136
224.13
224.132
224.144
224.155
224.172
224.196
224.226
224.262
224.304
224.351
224.404
224.462
224.524
224.591
224.663
224.741
224.825
224.915
225.009
225.106
225.209
225.317
225.429
225.545
225.663
225.786
225.915
226.048
226.185
226.327
226.47
226.616
226.763
226.911
227.06
227.212
227.366
227.522
227.679
227.839
227.999
228.159
228.321
228.482
228.642
228.802
228.96
229.117
229.271
229.423
229.572
229.717
229.857
229.992
230.121
230.243
230.358
230.463
230.559
230.644
230.717
230.775
230.819
230.846
230.856
230.845
230.811
230.753
230.668
230.554
230.408
230.226
230.005
229.745
229.445
229.1
228.707
228.264
227.766
227.215
226.604
225.935
225.202
224.404
223.537
222.606
221.615
220.568
219.447
218.26
216.999
215.703
214.373
213.03
211.661
210.328
207.926
223
223
223
223
223
223.001
223.023
223.265
224.013
224.809
225.122
225.159
225.049
224.741
224.432
224.183
224.01
223.943
223.96
224.107
224.245
224.284
224.28
224.264
224.26
224.266
224.282
224.297
224.317
224.345
224.38
224.42
224.466
224.518
224.575
224.637
224.704
224.775
224.851
224.933
225.02
225.113
225.211
225.313
225.42
225.533
225.65
225.77
225.894
226.023
226.156
226.295
226.439
226.586
226.737
226.89
227.044
227.199
227.357
227.516
227.678
227.843
228.01
228.179
228.35
228.521
228.694
228.868
229.041
229.215
229.388
229.561
229.732
229.902
230.069
230.234
230.396
230.554
230.708
230.857
231
231.136
231.264
231.383
231.493
231.592
231.679
231.752
231.809
231.85
231.873
231.878
231.857
231.813
231.741
231.637
231.504
231.337
231.133
230.889
230.6
230.263
229.875
229.435
228.938
228.383
227.764
227.083
226.336
225.523
224.648
223.708
222.703
221.635
220.492
219.304
218.053
216.806
215.482
214.199
212.056
223
223
223
223
223
223
223.011
223.176
223.842
224.713
225.11
225.204
225.138
224.849
224.524
224.263
224.083
224.01
224.025
224.178
224.347
224.401
224.4
224.386
224.383
224.394
224.414
224.434
224.458
224.491
224.529
224.574
224.624
224.68
224.741
224.807
224.878
224.954
225.033
225.118
225.209
225.305
225.406
225.512
225.623
225.74
225.861
225.987
226.116
226.249
226.387
226.531
226.68
226.834
226.99
227.149
227.31
227.472
227.636
227.803
227.973
228.145
228.321
228.498
228.678
228.86
229.043
229.228
229.413
229.599
229.785
229.972
230.158
230.343
230.528
230.711
230.891
231.07
231.245
231.417
231.584
231.747
231.903
232.053
232.196
232.329
232.454
232.567
232.668
232.756
232.828
232.884
232.921
232.939
232.938
232.904
232.851
232.764
232.644
232.488
232.292
232.053
231.769
231.437
231.053
230.616
230.12
229.567
228.951
228.272
227.525
226.709
225.832
224.885
223.871
222.793
221.657
220.5
219.284
218.018
216.146
223
223
223
223
223
223
223.006
223.119
223.7
224.614
225.098
225.249
225.204
224.932
224.6
224.333
224.151
224.075
224.091
224.25
224.445
224.513
224.512
224.5
224.498
224.515
224.541
224.567
224.596
224.633
224.676
224.725
224.779
224.838
224.903
224.973
225.048
225.127
225.209
225.297
225.39
225.49
225.594
225.704
225.819
225.939
226.065
226.194
226.328
226.465
226.608
226.756
226.91
227.069
227.231
227.395
227.561
227.73
227.9
228.073
228.249
228.429
228.611
228.797
228.985
229.175
229.367
229.561
229.757
229.953
230.151
230.35
230.549
230.748
230.947
231.145
231.342
231.538
231.732
231.924
232.113
232.298
232.479
232.655
232.826
232.99
233.147
233.296
233.435
233.564
233.68
233.784
233.873
233.944
233.999
234.033
234.047
234.035
233.992
233.921
233.817
233.678
233.5
233.28
233.014
232.702
232.336
231.916
231.434
230.892
230.282
229.607
228.866
228.054
227.181
226.235
225.237
224.186
223.09
221.881
220.19
223
223
223
223
223
223
223.003
223.084
223.592
224.523
225.091
225.284
225.248
224.998
224.662
224.392
224.213
224.138
224.156
224.324
224.539
224.616
224.616
224.605
224.605
224.63
224.664
224.696
224.731
224.774
224.821
224.874
224.931
224.993
225.061
225.134
225.212
225.293
225.378
225.469
225.564
225.667
225.775
225.888
226.006
226.13
226.259
226.393
226.53
226.671
226.818
226.97
227.128
227.291
227.458
227.627
227.798
227.972
228.147
228.326
228.508
228.693
228.882
229.074
229.269
229.467
229.667
229.869
230.073
230.28
230.487
230.696
230.906
231.117
231.329
231.54
231.752
231.962
232.172
232.381
232.589
232.794
232.996
233.195
233.389
233.58
233.765
233.943
234.115
234.278
234.433
234.577
234.71
234.83
234.936
235.025
235.096
235.148
235.177
235.186
235.164
235.116
235.033
234.912
234.751
234.547
234.294
233.989
233.625
233.204
232.714
232.16
231.534
230.837
230.072
229.233
228.342
227.393
226.407
225.301
223.766
223
223
223
223
223
223
223.002
223.065
223.519
224.453
225.091
225.31
225.281
225.047
224.711
224.441
224.269
224.196
224.217
224.4
224.629
224.713
224.713
224.703
224.708
224.74
224.782
224.822
224.864
224.911
224.963
225.018
225.078
225.143
225.213
225.288
225.368
225.451
225.539
225.632
225.731
225.836
225.948
226.064
226.186
226.313
226.446
226.582
226.723
226.868
227.017
227.173
227.335
227.501
227.672
227.845
228.021
228.199
228.379
228.562
228.749
228.939
229.133
229.331
229.532
229.737
229.944
230.153
230.365
230.579
230.795
231.013
231.232
231.453
231.676
231.898
232.122
232.345
232.569
232.792
233.015
233.237
233.457
233.674
233.89
234.102
234.31
234.514
234.713
234.906
235.092
235.271
235.441
235.602
235.751
235.889
236.013
236.122
236.213
236.285
236.335
236.362
236.366
236.331
236.269
236.167
236.024
235.838
235.601
235.313
234.965
234.558
234.078
233.532
232.91
232.211
231.444
230.602
229.713
228.692
227.28
223
223
223
223
223
223
223.002
223.057
223.48
224.412
225.097
225.332
225.308
225.082
224.747
224.479
224.317
224.246
224.275
224.48
224.718
224.806
224.805
224.796
224.807
224.846
224.896
224.942
224.99
225.042
225.097
225.155
225.217
225.284
225.356
225.433
225.514
225.6
225.69
225.786
225.888
225.997
226.112
226.232
226.356
226.487
226.622
226.762
226.906
227.053
227.206
227.365
227.529
227.699
227.873
228.05
228.23
228.411
228.595
228.783
228.973
229.168
229.367
229.57
229.776
229.986
230.199
230.414
230.633
230.854
231.077
231.302
231.53
231.759
231.99
232.223
232.456
232.691
232.926
233.161
233.397
233.632
233.867
234.101
234.333
234.563
234.791
235.016
235.238
235.455
235.668
235.875
236.077
236.271
236.457
236.634
236.801
236.957
237.1
237.228
237.339
237.431
237.505
237.553
237.579
237.581
237.54
237.474
237.362
237.205
236.997
236.732
236.4
236.001
235.521
234.966
234.322
233.591
232.792
231.848
230.535
223
223
223
223
223
223
223.002
223.055
223.472
224.405
225.108
225.353
225.33
225.103
224.769
224.505
224.355
224.292
224.332
224.567
224.809
224.895
224.895
224.887
224.902
224.946
225.003
225.054
225.107
225.163
225.221
225.282
225.346
225.415
225.488
225.567
225.65
225.739
225.832
225.931
226.036
226.149
226.268
226.391
226.518
226.651
226.79
226.932
227.078
227.228
227.384
227.545
227.713
227.886
228.063
228.243
228.426
228.61
228.798
228.988
229.183
229.381
229.584
229.791
230.002
230.216
230.434
230.655
230.879
231.105
231.335
231.567
231.801
232.038
232.276
232.517
232.759
233.002
233.247
233.493
233.739
233.986
234.233
234.48
234.726
234.971
235.215
235.457
235.698
235.935
236.17
236.401
236.627
236.849
237.065
237.274
237.477
237.671
237.856
238.03
238.193
238.343
238.478
238.596
238.693
238.771
238.821
238.848
238.846
238.793
238.711
238.578
238.391
238.151
237.838
237.464
236.993
236.438
235.763
234.934
233.728
223
223
223
223
223
223
223.002
223.057
223.482
224.427
225.131
225.374
225.347
225.109
224.775
224.52
224.382
224.333
224.393
224.663
224.902
224.981
224.981
224.975
224.993
225.042
225.101
225.156
225.213
225.273
225.334
225.398
225.464
225.535
225.61
225.691
225.777
225.868
225.964
226.067
226.176
226.292
226.414
226.541
226.671
226.806
226.947
227.092
227.241
227.393
227.551
227.715
227.885
228.061
228.241
228.424
228.609
228.796
228.987
229.18
229.378
229.58
229.786
229.997
230.211
230.43
230.652
230.877
231.106
231.338
231.572
231.81
232.05
232.293
232.538
232.785
233.034
233.286
233.538
233.792
234.048
234.304
234.561
234.819
235.077
235.334
235.592
235.848
236.104
236.358
236.61
236.859
237.106
237.35
237.59
237.825
238.056
238.281
238.5
238.711
238.914
239.109
239.292
239.463
239.62
239.762
239.887
239.99
240.074
240.13
240.161
240.164
240.115
240.032
239.89
239.697
239.427
239.087
238.599
238.002
237.035
223
223
223
223
223
223
223.002
223.064
223.524
224.486
225.165
225.394
225.359
225.104
224.769
224.524
224.401
224.372
224.464
224.769
224.997
225.065
225.063
225.059
225.08
225.133
225.193
225.249
225.308
225.372
225.436
225.503
225.572
225.645
225.723
225.806
225.895
225.99
226.09
226.196
226.308
226.428
226.553
226.681
226.814
226.952
227.095
227.242
227.393
227.547
227.708
227.874
228.047
228.225
228.407
228.593
228.78
228.97
229.163
229.359
229.559
229.764
229.973
230.187
230.406
230.628
230.854
231.083
231.316
231.552
231.791
232.033
232.279
232.527
232.777
233.031
233.286
233.544
233.803
234.065
234.328
234.593
234.858
235.125
235.393
235.66
235.929
236.197
236.465
236.732
236.998
237.263
237.527
237.788
238.047
238.304
238.557
238.807
239.052
239.292
239.527
239.756
239.977
240.19
240.394
240.588
240.771
240.941
241.095
241.233
241.348
241.444
241.508
241.544
241.549
241.506
241.434
241.3
241.056
240.769
240.188
223
223
223
223
223
223
223.003
223.081
223.596
224.572
225.203
225.409
225.364
225.085
224.75
224.521
224.415
224.409
224.551
224.884
225.091
225.145
225.14
225.137
225.163
225.219
225.278
225.335
225.396
225.461
225.528
225.598
225.67
225.747
225.828
225.915
226.007
226.105
226.208
226.317
226.433
226.555
226.682
226.813
226.948
227.087
227.232
227.382
227.535
227.692
227.854
228.023
228.199
228.379
228.564
228.751
228.941
229.132
229.327
229.526
229.729
229.936
230.149
230.366
230.587
230.812
231.042
231.275
231.511
231.751
231.994
232.241
232.491
232.744
232.999
233.258
233.519
233.782
234.048
234.315
234.585
234.856
235.13
235.404
235.68
235.956
236.233
236.511
236.789
237.068
237.346
237.623
237.9
238.176
238.45
238.723
238.993
239.262
239.528
239.79
240.049
240.304
240.554
240.798
241.037
241.268
241.492
241.707
241.912
242.107
242.288
242.457
242.608
242.738
242.849
242.935
243.011
243.046
243.027
242.981
242.808
223
223
223
223
223
223
223.005
223.11
223.696
224.678
225.244
225.416
225.359
225.053
224.724
224.516
224.426
224.445
224.655
225.001
225.182
225.22
225.212
225.212
225.243
225.302
225.36
225.416
225.478
225.545
225.615
225.687
225.763
225.843
225.928
226.018
226.113
226.214
226.32
226.432
226.55
226.674
226.803
226.935
227.071
227.213
227.36
227.511
227.666
227.825
227.991
228.162
228.34
228.523
228.709
228.898
229.09
229.283
229.48
229.681
229.886
230.096
230.311
230.531
230.755
230.984
231.216
231.452
231.692
231.936
232.183
232.433
232.687
232.944
233.204
233.467
233.733
234.002
234.272
234.546
234.821
235.099
235.378
235.66
235.942
236.226
236.511
236.797
237.084
237.371
237.659
237.946
238.233
238.52
238.806
239.092
239.376
239.659
239.939
240.218
240.494
240.768
241.038
241.304
241.566
241.823
242.075
242.321
242.56
242.791
243.014
243.227
243.428
243.616
243.788
243.945
244.087
244.216
244.335
244.406
244.462
223
223
223
223
223
223
223.009
223.154
223.825
224.796
225.287
225.414
225.337
225.012
224.693
224.514
224.441
224.491
224.771
225.115
225.265
225.288
225.279
225.282
225.32
225.382
225.438
225.494
225.557
225.626
225.697
225.772
225.851
225.934
226.023
226.116
226.215
226.318
226.426
226.54
226.66
226.786
226.915
227.049
227.186
227.33
227.478
227.631
227.788
227.95
228.117
228.291
228.471
228.656
228.844
229.035
229.228
229.424
229.622
229.825
230.033
230.245
230.463
230.685
230.912
231.143
231.378
231.617
231.86
232.107
232.357
232.611
232.869
233.13
233.394
233.661
233.931
234.204
234.479
234.757
235.037
235.32
235.605
235.892
236.18
236.47
236.762
237.054
237.348
237.642
237.937
238.233
238.528
238.824
239.119
239.413
239.707
240
240.291
240.581
240.868
241.153
241.435
241.715
241.99
242.262
242.529
242.79
243.046
243.295
243.537
243.77
243.991
244.199
244.392