/*--------------------------------*- C++ -*----------------------------------*\
| =========                 |                                                 |
| \\      /  F ield         | OpenFOAM: The Open Source CFD Toolbox           |
|  \\    /   O peration     | Version:  2406                                  |
|   \\  /    A nd           | Website:  www.openfoam.com                      |
|    \\/     M anipulation  |                                                 |
\*---------------------------------------------------------------------------*/
FoamFile
{
    version     2.0;
    format      ascii;
    arch        "LSB;label=32;scalar=64";
    class       volVectorField;
    location    "0.023";
    object      U;
}
// * * * * * * * * * * * * * * * * * * * * * * * * * * * * * * * * * * * * * //

dimensions      [0 1 -1 0 0 0 0];

internalField   nonuniform List<vector> 
78650
(
(209.994 0.00309072 0)
(209.865 0.0500173 0)
(209.107 0.392081 0)
(207.548 1.20931 0)
(206.132 1.95319 0)
(205.805 2.24999 0)
(205.695 2.42818 0)
(206.244 2.35336 0)
(207.382 1.91207 0)
(208.563 1.52371 0)
(209.538 1.17851 0)
(210.495 0.986479 0)
(211.314 0.837629 0)
(211.964 0.898157 0)
(212.362 1.15927 0)
(212.652 1.53345 0)
(212.943 1.9339 0)
(213.287 2.3139 0)
(213.732 2.65553 0)
(214.235 2.98396 0)
(214.699 3.3571 0)
(215.102 3.78489 0)
(215.469 4.25049 0)
(215.817 4.75175 0)
(216.152 5.29724 0)
(216.475 5.89192 0)
(216.788 6.53157 0)
(217.088 7.20901 0)
(217.361 7.91889 0)
(217.609 8.65706 0)
(217.836 9.42228 0)
(218.044 10.2138 0)
(218.234 11.0315 0)
(218.405 11.8779 0)
(218.56 12.7554 0)
(218.699 13.6653 0)
(218.823 14.6061 0)
(218.933 15.5737 0)
(219.032 16.5649 0)
(219.119 17.5814 0)
(219.191 18.6263 0)
(219.252 19.7025 0)
(219.304 20.811 0)
(219.35 21.9522 0)
(219.393 23.1272 0)
(219.432 24.337 0)
(219.47 25.582 0)
(219.51 26.8614 0)
(219.554 28.1742 0)
(219.606 29.5193 0)
(219.671 30.8961 0)
(219.755 32.3037 0)
(219.856 33.7427 0)
(219.982 35.2145 0)
(220.137 36.7194 0)
(220.314 38.2592 0)
(220.53 39.8349 0)
(220.787 41.4462 0)
(221.077 43.0932 0)
(221.423 44.7761 0)
(221.825 46.494 0)
(222.28 48.2452 0)
(222.813 50.0281 0)
(223.422 51.8405 0)
(224.108 53.6817 0)
(224.901 55.5497 0)
(225.782 57.4438 0)
(226.768 59.3632 0)
(227.889 61.2994 0)
(229.114 63.2469 0)
(230.487 65.2 0)
(232.019 67.1583 0)
(233.687 69.1289 0)
(235.539 71.0969 0)
(237.553 73.0385 0)
(239.728 74.9351 0)
(242.103 76.7817 0)
(244.68 78.5802 0)
(247.447 80.3376 0)
(250.462 82.0252 0)
(253.691 83.6495 0)
(257.171 85.1569 0)
(260.86 86.54 0)
(264.768 87.7478 0)
(268.892 88.7905 0)
(273.283 89.6564 0)
(277.869 90.3839 0)
(282.454 90.9787 0)
(287.148 91.4524 0)
(291.903 91.7343 0)
(297.094 91.7354 0)
(302.094 91.506 0)
(307.039 91.2138 0)
(311.646 90.8618 0)
(315.949 90.4044 0)
(320.336 89.7561 0)
(325.084 88.9108 0)
(329.803 87.9893 0)
(335.299 86.6604 0)
(339.97 85.2344 0)
(344.602 83.6518 0)
(348.82 82.103 0)
(352.475 80.8649 0)
(356.015 79.6902 0)
(359.016 78.6543 0)
(361.595 77.6872 0)
(364.317 76.2991 0)
(366.592 75.4627 0)
(369.546 74.1995 0)
(371.978 73.364 0)
(375.005 72.0865 0)
(377.107 71.3126 0)
(379.094 70.2325 0)
(380.125 69.7366 0)
(380.932 68.9476 0)
(381.604 68.4305 0)
(382.93 67.743 0)
(385.116 67.1385 0)
(387.85 66.6956 0)
(391.298 66.2811 0)
(392.622 67.8612 0)
(209.997 0.00120381 0)
(209.917 0.0284836 0)
(209.325 0.278021 0)
(207.832 1.01426 0)
(206.256 1.81449 0)
(205.751 2.2005 0)
(205.557 2.41595 0)
(205.951 2.40816 0)
(207.023 2.02128 0)
(208.209 1.61603 0)
(209.198 1.25335 0)
(210.167 1.06488 0)
(210.998 0.917842 0)
(211.669 0.964069 0)
(212.084 1.20806 0)
(212.361 1.56894 0)
(212.622 1.9591 0)
(212.916 2.33874 0)
(213.318 2.68344 0)
(213.798 3.00685 0)
(214.254 3.36793 0)
(214.645 3.78683 0)
(214.996 4.24758 0)
(215.327 4.74475 0)
(215.646 5.28576 0)
(215.952 5.87553 0)
(216.249 6.50927 0)
(216.53 7.17961 0)
(216.784 7.88039 0)
(217.012 8.60734 0)
(217.219 9.35981 0)
(217.405 10.1375 0)
(217.57 10.9412 0)
(217.716 11.7733 0)
(217.846 12.6353 0)
(217.961 13.5292 0)
(218.058 14.454 0)
(218.141 15.4057 0)
(218.211 16.3821 0)
(218.268 17.3843 0)
(218.31 18.4149 0)
(218.339 19.4767 0)
(218.357 20.5708 0)
(218.367 21.6972 0)
(218.372 22.8564 0)
(218.372 24.0494 0)
(218.368 25.2766 0)
(218.362 26.5382 0)
(218.359 27.8329 0)
(218.359 29.1596 0)
(218.37 30.5183 0)
(218.395 31.908 0)
(218.432 33.3291 0)
(218.492 34.7834 0)
(218.575 36.2709 0)
(218.676 37.7935 0)
(218.811 39.353 0)
(218.98 40.9491 0)
(219.176 42.5818 0)
(219.422 44.2524 0)
(219.715 45.9601 0)
(220.054 47.7038 0)
(220.462 49.4829 0)
(220.937 51.2953 0)
(221.48 53.1409 0)
(222.122 55.0192 0)
(222.84 56.9284 0)
(223.655 58.8675 0)
(224.596 60.8319 0)
(225.63 62.8197 0)
(226.806 64.8288 0)
(228.125 66.8548 0)
(229.567 68.892 0)
(231.184 70.9223 0)
(232.956 72.9347 0)
(234.89 74.9323 0)
(237.028 76.9186 0)
(239.362 78.8859 0)
(241.883 80.8192 0)
(244.63 82.6781 0)
(247.547 84.4598 0)
(250.661 86.14 0)
(253.958 87.7308 0)
(257.464 89.2052 0)
(261.146 90.6099 0)
(265.049 91.8764 0)
(269.127 92.9924 0)
(273.435 93.9695 0)
(277.93 94.759 0)
(282.586 95.3326 0)
(287.469 95.7549 0)
(292.356 95.9948 0)
(297.227 96.0574 0)
(302.096 95.9538 0)
(307.194 95.5544 0)
(312.195 94.9768 0)
(317.896 94.0433 0)
(322.621 93.1482 0)
(327.657 92.0556 0)
(332.095 91.019 0)
(336.433 90.0065 0)
(341.034 88.7846 0)
(345.054 87.6394 0)
(348.97 86.3767 0)
(352.672 84.9702 0)
(355.892 83.8307 0)
(359.428 82.4422 0)
(362.387 81.5308 0)
(365.835 80.1717 0)
(368.363 79.3616 0)
(371.128 78.1397 0)
(373.221 77.3805 0)
(375.472 76.2588 0)
(377.185 75.4813 0)
(378.788 74.4229 0)
(379.763 73.7421 0)
(380.784 72.7822 0)
(381.989 72.4901 0)
(384.369 72.1279 0)
(388.078 71.7832 0)
(389.706 73.6672 0)
(209.999 0.00056576 0)
(209.952 0.0151939 0)
(209.517 0.186285 0)
(208.159 0.821377 0)
(206.463 1.66154 0)
(205.712 2.15072 0)
(205.426 2.38488 0)
(205.691 2.44279 0)
(206.657 2.1189 0)
(207.825 1.68844 0)
(208.83 1.30373 0)
(209.815 1.12354 0)
(210.662 0.982574 0)
(211.356 1.01367 0)
(211.795 1.24096 0)
(212.063 1.58905 0)
(212.296 1.96793 0)
(212.542 2.3454 0)
(212.897 2.69282 0)
(213.35 3.01195 0)
(213.799 3.36042 0)
(214.181 3.7709 0)
(214.517 4.22841 0)
(214.832 4.72403 0)
(215.134 5.26302 0)
(215.423 5.84981 0)
(215.702 6.47904 0)
(215.964 7.14328 0)
(216.199 7.83585 0)
(216.407 8.55263 0)
(216.593 9.29339 0)
(216.756 10.0585 0)
(216.896 10.8495 0)
(217.017 11.6684 0)
(217.122 12.5166 0)
(217.21 13.3962 0)
(217.281 14.3062 0)
(217.337 15.2437 0)
(217.377 16.2071 0)
(217.404 17.1967 0)
(217.416 18.215 0)
(217.412 19.2646 0)
(217.395 20.3471 0)
(217.368 21.462 0)
(217.334 22.6091 0)
(217.293 23.7893 0)
(217.246 25.003 0)
(217.195 26.2504 0)
(217.143 27.5316 0)
(217.092 28.8442 0)
(217.048 30.1887 0)
(217.013 31.5646 0)
(216.988 32.9713 0)
(216.983 34.411 0)
(216.995 35.8842 0)
(217.021 37.392 0)
(217.078 38.937 0)
(217.161 40.5189 0)
(217.267 42.1379 0)
(217.418 43.7954 0)
(217.608 45.4907 0)
(217.837 47.2231 0)
(218.13 48.9923 0)
(218.477 50.7966 0)
(218.888 52.6358 0)
(219.388 54.5095 0)
(219.953 56.4158 0)
(220.608 58.3553 0)
(221.375 60.3258 0)
(222.223 62.3252 0)
(223.201 64.3498 0)
(224.304 66.3926 0)
(225.518 68.4494 0)
(226.9 70.5139 0)
(228.426 72.5857 0)
(230.104 74.6678 0)
(231.971 76.7528 0)
(234.005 78.8253 0)
(236.209 80.8737 0)
(238.632 82.8759 0)
(241.234 84.8332 0)
(244.062 86.7243 0)
(247.113 88.5479 0)
(250.396 90.2855 0)
(253.874 91.9555 0)
(257.602 93.4862 0)
(261.543 94.9015 0)
(265.722 96.1069 0)
(270.098 97.1356 0)
(274.621 97.9561 0)
(279.11 98.6277 0)
(283.793 99.1632 0)
(288.536 99.4892 0)
(293.413 99.6416 0)
(298.878 99.5662 0)
(303.564 99.3926 0)
(308.63 99.0117 0)
(313.14 98.5913 0)
(317.634 98.0939 0)
(322.617 97.2657 0)
(326.965 96.4912 0)
(331.582 95.4965 0)
(335.826 94.48 0)
(339.82 93.4811 0)
(344.179 92.2316 0)
(348.013 91.1833 0)
(352.218 89.8679 0)
(355.601 88.8337 0)
(359.087 87.4762 0)
(361.773 86.5346 0)
(364.757 85.1716 0)
(367.17 84.3185 0)
(370.1 83.0647 0)
(372.128 82.282 0)
(374.05 81.1093 0)
(375.245 80.2974 0)
(376.582 79.2089 0)
(378.192 78.6521 0)
(380.856 78.1984 0)
(385.033 77.7951 0)
(386.673 80.0986 0)
(209.999 0.000211495 0)
(209.975 0.00726184 0)
(209.676 0.115322 0)
(208.496 0.631219 0)
(206.71 1.47643 0)
(205.703 2.06887 0)
(205.296 2.33433 0)
(205.471 2.4604 0)
(206.288 2.19995 0)
(207.423 1.76682 0)
(208.458 1.37957 0)
(209.468 1.21516 0)
(210.328 1.07661 0)
(211.039 1.0856 0)
(211.501 1.28565 0)
(211.759 1.61186 0)
(211.966 1.97392 0)
(212.164 2.34694 0)
(212.469 2.70024 0)
(212.888 3.02292 0)
(213.33 3.36331 0)
(213.704 3.76669 0)
(214.026 4.21993 0)
(214.324 4.71182 0)
(214.61 5.24568 0)
(214.881 5.82588 0)
(215.143 6.44701 0)
(215.385 7.10169 0)
(215.599 7.7827 0)
(215.788 8.4861 0)
(215.953 9.21201 0)
(216.092 9.96169 0)
(216.207 10.7377 0)
(216.304 11.541 0)
(216.386 12.373 0)
(216.449 13.236 0)
(216.495 14.1287 0)
(216.522 15.0501 0)
(216.535 15.9983 0)
(216.533 16.9732 0)
(216.516 17.9756 0)
(216.482 19.0103 0)
(216.431 20.0781 0)
(216.37 21.1773 0)
(216.299 22.3077 0)
(216.221 23.4699 0)
(216.134 24.6645 0)
(216.042 25.8915 0)
(215.943 27.154 0)
(215.845 28.445 0)
(215.749 29.7675 0)
(215.658 31.1227 0)
(215.574 32.5081 0)
(215.507 33.9267 0)
(215.451 35.3794 0)
(215.406 36.8658 0)
(215.387 38.39 0)
(215.387 39.9514 0)
(215.406 41.5503 0)
(215.464 43.1891 0)
(215.551 44.8667 0)
(215.673 46.5833 0)
(215.849 48.3396 0)
(216.07 50.1336 0)
(216.348 51.9661 0)
(216.704 53.8371 0)
(217.115 55.745 0)
(217.61 57.692 0)
(218.203 59.6763 0)
(218.866 61.695 0)
(219.652 63.746 0)
(220.548 65.8244 0)
(221.551 67.9295 0)
(222.714 70.0591 0)
(224.005 72.2114 0)
(225.439 74.3834 0)
(227.049 76.5615 0)
(228.813 78.7292 0)
(230.745 80.8777 0)
(232.892 82.9917 0)
(235.206 85.0708 0)
(237.737 87.0988 0)
(240.474 89.0775 0)
(243.415 91.002 0)
(246.547 92.8706 0)
(249.907 94.6102 0)
(253.407 96.2474 0)
(257.135 97.7206 0)
(261.062 99.0961 0)
(265.233 100.322 0)
(269.636 101.4 0)
(274.24 102.316 0)
(279.218 103.133 0)
(283.927 103.657 0)
(288.881 104.065 0)
(293.638 104.266 0)
(298.476 104.33 0)
(303.817 104.137 0)
(308.738 103.827 0)
(314.09 103.297 0)
(318.886 102.697 0)
(323.589 102.006 0)
(328.569 100.994 0)
(332.936 100.053 0)
(337.608 98.9339 0)
(341.745 97.9186 0)
(345.629 96.8466 0)
(349.252 95.7803 0)
(352.777 94.5725 0)
(355.905 93.6302 0)
(359.606 92.2801 0)
(362.582 91.3489 0)
(366.099 90.0382 0)
(368.479 89.329 0)
(370.776 88.1577 0)
(371.922 87.4779 0)
(372.973 86.3418 0)
(374.196 85.734 0)
(376.858 85.0774 0)
(381.484 84.5401 0)
(383.297 87.1826 0)
(210 7.56466e-05 0)
(209.988 0.00311015 0)
(209.799 0.0652298 0)
(208.838 0.455761 0)
(207.05 1.27005 0)
(205.771 1.95819 0)
(205.184 2.29138 0)
(205.276 2.43288 0)
(205.912 2.24837 0)
(206.992 1.83617 0)
(208.06 1.45364 0)
(209.095 1.30136 0)
(209.965 1.15771 0)
(210.693 1.13994 0)
(211.186 1.30884 0)
(211.442 1.61167 0)
(211.626 1.95731 0)
(211.779 2.32514 0)
(212.032 2.6841 0)
(212.411 3.01223 0)
(212.843 3.34506 0)
(213.212 3.74267 0)
(213.521 4.19406 0)
(213.802 4.68525 0)
(214.07 5.21619 0)
(214.324 5.79082 0)
(214.566 6.40409 0)
(214.787 7.04907 0)
(214.981 7.71843 0)
(215.149 8.40862 0)
(215.292 9.1201 0)
(215.407 9.85535 0)
(215.496 10.6171 0)
(215.569 11.4056 0)
(215.626 12.2234 0)
(215.664 13.0704 0)
(215.682 13.9464 0)
(215.681 14.8536 0)
(215.665 15.7879 0)
(215.635 16.7485 0)
(215.588 17.7382 0)
(215.521 18.76 0)
(215.437 19.8141 0)
(215.34 20.8997 0)
(215.232 22.0158 0)
(215.114 23.1628 0)
(214.986 24.3417 0)
(214.849 25.5533 0)
(214.705 26.7961 0)
(214.557 28.0708 0)
(214.41 29.3761 0)
(214.26 30.7165 0)
(214.118 32.0831 0)
(213.988 33.4821 0)
(213.862 34.9173 0)
(213.749 36.3844 0)
(213.655 37.89 0)
(213.574 39.4328 0)
(213.51 41.0125 0)
(213.478 42.6326 0)
(213.468 44.2915 0)
(213.488 45.9897 0)
(213.556 47.7285 0)
(213.659 49.5056 0)
(213.814 51.3224 0)
(214.037 53.1789 0)
(214.305 55.0731 0)
(214.652 57.0083 0)
(215.082 58.9829 0)
(215.573 60.9941 0)
(216.179 63.0425 0)
(216.875 65.1242 0)
(217.668 67.2393 0)
(218.606 69.3863 0)
(219.65 71.5599 0)
(220.826 73.754 0)
(222.165 75.9572 0)
(223.643 78.1631 0)
(225.286 80.3764 0)
(227.13 82.5912 0)
(229.13 84.8046 0)
(231.344 87.0031 0)
(233.762 89.1842 0)
(236.381 91.3316 0)
(239.208 93.4225 0)
(242.272 95.4164 0)
(245.528 97.3339 0)
(249.042 99.112 0)
(252.716 100.816 0)
(256.647 102.369 0)
(260.764 103.813 0)
(265.021 105.02 0)
(269.485 106.136 0)
(273.986 107.052 0)
(278.654 107.838 0)
(283.585 108.447 0)
(288.707 108.823 0)
(293.796 108.974 0)
(298.838 108.92 0)
(303.704 108.754 0)
(308.754 108.358 0)
(313.396 107.96 0)
(318.64 107.262 0)
(323.154 106.638 0)
(327.853 105.839 0)
(332.251 104.936 0)
(336.301 103.996 0)
(340.511 102.946 0)
(344.523 101.893 0)
(348.169 100.995 0)
(352.108 99.779 0)
(355.17 98.9409 0)
(358.634 97.6785 0)
(361.187 96.8416 0)
(363.747 95.542 0)
(365.353 94.7064 0)
(367.126 93.5562 0)
(369.11 92.985 0)
(372.284 92.4014 0)
(377.173 91.9179 0)
(378.919 94.803 0)
(210 2.18038e-05 0)
(209.995 0.0011481 0)
(209.887 0.0329305 0)
(209.16 0.303392 0)
(207.444 1.03792 0)
(205.896 1.81546 0)
(205.091 2.23775 0)
(205.11 2.37013 0)
(205.546 2.27282 0)
(206.548 1.92901 0)
(207.656 1.56191 0)
(208.715 1.40656 0)
(209.589 1.24819 0)
(210.331 1.20577 0)
(210.856 1.33913 0)
(211.115 1.61399 0)
(211.276 1.94206 0)
(211.388 2.30375 0)
(211.59 2.67113 0)
(211.921 3.01372 0)
(212.339 3.34514 0)
(212.702 3.73671 0)
(213 4.18204 0)
(213.265 4.66739 0)
(213.514 5.19033 0)
(213.748 5.75485 0)
(213.971 6.35642 0)
(214.169 6.98833 0)
(214.343 7.64302 0)
(214.49 8.31715 0)
(214.61 9.01178 0)
(214.699 9.73061 0)
(214.765 10.4758 0)
(214.815 11.2478 0)
(214.847 12.0485 0)
(214.862 12.8744 0)
(214.851 13.7373 0)
(214.824 14.6272 0)
(214.782 15.5441 0)
(214.724 16.4884 0)
(214.648 17.4622 0)
(214.551 18.4674 0)
(214.435 19.5049 0)
(214.304 20.5732 0)
(214.161 21.6708 0)
(214.006 22.798 0)
(213.84 23.9556 0)
(213.663 25.1446 0)
(213.476 26.365 0)
(213.282 27.6165 0)
(213.084 28.8995 0)
(212.885 30.2119 0)
(212.689 31.5548 0)
(212.499 32.9294 0)
(212.306 34.3429 0)
(212.129 35.783 0)
(211.962 37.2621 0)
(211.802 38.7798 0)
(211.659 40.3336 0)
(211.539 41.9292 0)
(211.434 43.5641 0)
(211.356 45.2391 0)
(211.315 46.9565 0)
(211.301 48.7136 0)
(211.334 50.5133 0)
(211.422 52.3552 0)
(211.547 54.2376 0)
(211.744 56.1653 0)
(212.01 58.1367 0)
(212.33 60.1499 0)
(212.754 62.2073 0)
(213.253 64.304 0)
(213.842 66.4404 0)
(214.565 68.6155 0)
(215.379 70.8227 0)
(216.322 73.0602 0)
(217.416 75.3243 0)
(218.636 77.6155 0)
(220.016 79.9361 0)
(221.582 82.2713 0)
(223.29 84.6098 0)
(225.203 86.938 0)
(227.305 89.248 0)
(229.595 91.5199 0)
(232.09 93.7335 0)
(234.797 95.8744 0)
(237.688 97.967 0)
(240.837 99.9931 0)
(244.184 101.986 0)
(247.802 103.836 0)
(251.562 105.625 0)
(255.608 107.222 0)
(259.861 108.651 0)
(264.378 109.92 0)
(269.112 111.044 0)
(273.777 111.949 0)
(278.691 112.738 0)
(283.42 113.333 0)
(288.484 113.723 0)
(293.347 114 0)
(298.854 114.022 0)
(303.684 113.89 0)
(309.118 113.543 0)
(313.969 113.097 0)
(318.69 112.587 0)
(323.785 111.767 0)
(328.248 110.996 0)
(333.048 110.04 0)
(337.324 109.134 0)
(341.162 108.269 0)
(345.112 107.169 0)
(348.394 106.422 0)
(352.277 105.268 0)
(355.349 104.426 0)
(358.669 103.01 0)
(360.864 101.857 0)
(362.792 100.442 0)
(364.515 99.8506 0)
(367.496 99.4169 0)
(372.28 99.1399 0)
(374.108 101.901 0)
(210 5.61727e-06 0)
(209.998 0.000357951 0)
(209.943 0.0145739 0)
(209.441 0.183364 0)
(207.899 0.800237 0)
(206.127 1.63293 0)
(205.058 2.14365 0)
(204.988 2.28498 0)
(205.208 2.27498 0)
(206.094 2.03487 0)
(207.221 1.67236 0)
(208.301 1.49303 0)
(209.179 1.31326 0)
(209.939 1.25244 0)
(210.502 1.34569 0)
(210.779 1.59026 0)
(210.92 1.89938 0)
(210.997 2.24952 0)
(211.15 2.62238 0)
(211.423 2.98354 0)
(211.82 3.32054 0)
(212.178 3.71117 0)
(212.465 4.15426 0)
(212.713 4.63618 0)
(212.942 5.15183 0)
(213.156 5.70562 0)
(213.356 6.29436 0)
(213.532 6.91207 0)
(213.684 7.55132 0)
(213.81 8.20903 0)
(213.904 8.88725 0)
(213.967 9.59041 0)
(214.011 10.3193 0)
(214.038 11.074 0)
(214.046 11.8556 0)
(214.029 12.6724 0)
(213.994 13.5163 0)
(213.942 14.3891 0)
(213.872 15.2904 0)
(213.784 16.2201 0)
(213.678 17.1795 0)
(213.55 18.1701 0)
(213.402 19.1924 0)
(213.236 20.2451 0)
(213.056 21.3262 0)
(212.863 22.4357 0)
(212.657 23.5745 0)
(212.437 24.7436 0)
(212.206 25.9435 0)
(211.964 27.1743 0)
(211.716 28.4357 0)
(211.463 29.7279 0)
(211.209 31.0509 0)
(210.956 32.406 0)
(210.706 33.7906 0)
(210.461 35.21 0)
(210.222 36.666 0)
(209.984 38.1624 0)
(209.764 39.6902 0)
(209.558 41.2602 0)
(209.363 42.8704 0)
(209.192 44.5202 0)
(209.048 46.2131 0)
(208.925 47.9455 0)
(208.845 49.7211 0)
(208.809 51.5388 0)
(208.802 53.397 0)
(208.862 55.3019 0)
(208.976 57.2507 0)
(209.138 59.2429 0)
(209.395 61.2817 0)
(209.709 63.3616 0)
(210.107 65.4858 0)
(210.622 67.6548 0)
(211.21 69.8628 0)
(211.918 72.112 0)
(212.757 74.3996 0)
(213.704 76.7222 0)
(214.801 79.077 0)
(216.061 81.4502 0)
(217.446 83.8356 0)
(219.028 86.2282 0)
(220.784 88.6195 0)
(222.723 90.9968 0)
(224.872 93.3584 0)
(227.238 95.7071 0)
(229.801 98.0503 0)
(232.604 100.357 0)
(235.599 102.616 0)
(238.853 104.751 0)
(242.268 106.812 0)
(245.972 108.69 0)
(249.818 110.509 0)
(253.898 112.141 0)
(258.154 113.657 0)
(262.595 114.988 0)
(267.248 116.199 0)
(272.044 117.214 0)
(277.059 118.037 0)
(281.891 118.648 0)
(287.148 119.098 0)
(291.985 119.336 0)
(296.848 119.502 0)
(302.075 119.447 0)
(306.733 119.3 0)
(312.074 118.862 0)
(316.653 118.467 0)
(321.406 117.879 0)
(325.882 117.196 0)
(330.157 116.425 0)
(334.586 115.495 0)
(338.486 114.785 0)
(342.75 113.824 0)
(346.18 113.056 0)
(349.666 111.781 0)
(352.071 110.574 0)
(354.018 108.986 0)
(355.709 107.988 0)
(358.881 107.3 0)
(364.677 106.822 0)
(366.582 110.238 0)
(210 1.09029e-06 0)
(209.999 8.81918e-05 0)
(209.975 0.00549672 0)
(209.663 0.0983934 0)
(208.379 0.570186 0)
(206.453 1.40428 0)
(205.069 1.99479 0)
(204.875 2.20057 0)
(204.909 2.27673 0)
(205.642 2.13477 0)
(206.763 1.77859 0)
(207.862 1.57514 0)
(208.747 1.37791 0)
(209.53 1.302 0)
(210.127 1.35627 0)
(210.429 1.57331 0)
(210.55 1.87072 0)
(210.6 2.21286 0)
(210.709 2.59544 0)
(210.924 2.97629 0)
(211.29 3.31942 0)
(211.639 3.70222 0)
(211.916 4.13416 0)
(212.145 4.60491 0)
(212.353 5.1077 0)
(212.546 5.64701 0)
(212.722 6.22042 0)
(212.874 6.82204 0)
(213.005 7.4441 0)
(213.108 8.08406 0)
(213.176 8.74531 0)
(213.215 9.43152 0)
(213.24 10.1405 0)
(213.244 10.8773 0)
(213.222 11.6467 0)
(213.181 12.443 0)
(213.122 13.2685 0)
(213.045 14.1231 0)
(212.948 15.0067 0)
(212.833 15.9191 0)
(212.698 16.861 0)
(212.542 17.8335 0)
(212.363 18.8369 0)
(212.164 19.8699 0)
(211.949 20.9304 0)
(211.721 22.0178 0)
(211.478 23.1329 0)
(211.22 24.2771 0)
(210.947 25.4513 0)
(210.661 26.6557 0)
(210.366 27.8902 0)
(210.064 29.1547 0)
(209.757 30.4493 0)
(209.449 31.7747 0)
(209.139 33.1325 0)
(208.83 34.5237 0)
(208.522 35.9502 0)
(208.219 37.4111 0)
(207.923 38.9103 0)
(207.634 40.45 0)
(207.35 42.0318 0)
(207.089 43.6492 0)
(206.844 45.3115 0)
(206.615 47.0147 0)
(206.423 48.7632 0)
(206.261 50.5557 0)
(206.125 52.3899 0)
(206.047 54.2741 0)
(206.007 56.2039 0)
(206.012 58.1812 0)
(206.098 60.2097 0)
(206.227 62.283 0)
(206.436 64.4066 0)
(206.745 66.5802 0)
(207.115 68.7967 0)
(207.6 71.0606 0)
(208.199 73.368 0)
(208.892 75.715 0)
(209.731 78.1017 0)
(210.711 80.5194 0)
(211.806 82.9668 0)
(213.09 85.4431 0)
(214.533 87.9378 0)
(216.15 90.442 0)
(217.968 92.9541 0)
(219.979 95.47 0)
(222.174 97.9837 0)
(224.596 100.465 0)
(227.224 102.889 0)
(230.09 105.221 0)
(233.14 107.502 0)
(236.483 109.667 0)
(239.958 111.808 0)
(243.758 113.781 0)
(247.73 115.699 0)
(251.965 117.427 0)
(256.391 119.028 0)
(260.998 120.43 0)
(265.847 121.718 0)
(270.649 122.724 0)
(275.713 123.634 0)
(280.825 124.285 0)
(285.72 124.784 0)
(291.343 125.116 0)
(296.218 125.227 0)
(301.486 125.207 0)
(306.53 125.04 0)
(311.191 124.802 0)
(316.493 124.237 0)
(321.081 123.718 0)
(326.035 122.983 0)
(330.278 122.435 0)
(334.755 121.637 0)
(338.496 121.044 0)
(342.531 120.001 0)
(345.372 119.073 0)
(348.011 117.67 0)
(350.327 116.76 0)
(354.004 116.009 0)
(360.232 115.68 0)
(362.167 119.725 0)
(210 1.55264e-07 0)
(210 1.4941e-05 0)
(209.99 0.00170404 0)
(209.819 0.0458906 0)
(208.845 0.369181 0)
(206.905 1.13954 0)
(205.207 1.80863 0)
(204.793 2.11332 0)
(204.659 2.25737 0)
(205.188 2.19214 0)
(206.27 1.86238 0)
(207.392 1.64092 0)
(208.292 1.42888 0)
(209.097 1.32862 0)
(209.732 1.33586 0)
(210.074 1.52444 0)
(210.183 1.81248 0)
(210.215 2.15017 0)
(210.285 2.54505 0)
(210.436 2.94647 0)
(210.755 3.30173 0)
(211.087 3.67645 0)
(211.351 4.09505 0)
(211.562 4.55338 0)
(211.749 5.04317 0)
(211.919 5.56769 0)
(212.072 6.12496 0)
(212.201 6.70949 0)
(212.31 7.31357 0)
(212.387 7.93613 0)
(212.428 8.58153 0)
(212.449 9.24828 0)
(212.454 9.93896 0)
(212.429 10.6633 0)
(212.383 11.4141 0)
(212.317 12.1937 0)
(212.232 13.0019 0)
(212.129 13.8391 0)
(212.006 14.7058 0)
(211.862 15.602 0)
(211.698 16.5278 0)
(211.511 17.4837 0)
(211.299 18.4698 0)
(211.066 19.4846 0)
(210.816 20.5261 0)
(210.55 21.5931 0)
(210.268 22.6863 0)
(209.97 23.8075 0)
(209.654 24.9577 0)
(209.324 26.1377 0)
(208.98 27.3473 0)
(208.626 28.5868 0)
(208.265 29.8562 0)
(207.899 31.156 0)
(207.529 32.4867 0)
(207.157 33.8499 0)
(206.784 35.2474 0)
(206.409 36.6814 0)
(206.036 38.1528 0)
(205.668 39.6622 0)
(205.306 41.2088 0)
(204.957 42.7962 0)
(204.614 44.4289 0)
(204.285 46.1003 0)
(203.988 47.8137 0)
(203.708 49.5735 0)
(203.455 51.3738 0)
(203.25 53.2252 0)
(203.07 55.1211 0)
(202.934 57.0654 0)
(202.864 59.0613 0)
(202.824 61.1018 0)
(202.862 63.1958 0)
(202.979 65.3416 0)
(203.143 67.534 0)
(203.415 69.7818 0)
(203.777 72.0797 0)
(204.221 74.4254 0)
(204.798 76.8223 0)
(205.493 79.2636 0)
(206.292 81.7483 0)
(207.267 84.2757 0)
(208.377 86.834 0)
(209.65 89.4202 0)
(211.111 92.0345 0)
(212.75 94.6657 0)
(214.569 97.2974 0)
(216.609 99.9029 0)
(218.846 102.471 0)
(221.305 105.001 0)
(223.974 107.516 0)
(226.916 109.975 0)
(230.022 112.413 0)
(233.45 114.705 0)
(236.986 116.958 0)
(240.827 119.024 0)
(244.815 121.039 0)
(249.046 122.858 0)
(253.474 124.579 0)
(258.086 126.072 0)
(262.869 127.408 0)
(267.956 128.609 0)
(272.825 129.486 0)
(278.134 130.302 0)
(283.361 130.808 0)
(288.198 131.222 0)
(293.99 131.463 0)
(298.697 131.528 0)
(304.385 131.31 0)
(308.98 131.127 0)
(313.968 130.691 0)
(318.524 130.244 0)
(323.174 129.593 0)
(327.512 129.011 0)
(332.035 128.208 0)
(335.465 127.486 0)
(338.664 126.319 0)
(341.305 125.443 0)
(344.97 124.735 0)
(351.238 124.368 0)
(353.14 128.293 0)
(210 1.55312e-09 0)
(210 5.85571e-07 0)
(209.997 0.000404175 0)
(209.915 0.018056 0)
(209.25 0.211949 0)
(207.459 0.860632 0)
(205.471 1.59272 0)
(204.722 2.04547 0)
(204.45 2.17453 0)
(204.77 2.20012 0)
(205.769 1.94796 0)
(206.9 1.70945 0)
(207.816 1.46921 0)
(208.646 1.34673 0)
(209.32 1.33131 0)
(209.707 1.50555 0)
(209.809 1.78745 0)
(209.831 2.11181 0)
(209.868 2.50668 0)
(209.958 2.92747 0)
(210.217 3.2895 0)
(210.521 3.64857 0)
(210.77 4.04724 0)
(210.961 4.48848 0)
(211.128 4.96177 0)
(211.277 5.46882 0)
(211.406 6.00846 0)
(211.514 6.5753 0)
(211.6 7.16196 0)
(211.648 7.76937 0)
(211.666 8.39864 0)
(211.673 9.04431 0)
(211.649 9.7257 0)
(211.601 10.4319 0)
(211.53 11.1661 0)
(211.439 11.9277 0)
(211.33 12.7168 0)
(211.203 13.5345 0)
(211.054 14.3818 0)
(210.884 15.259 0)
(210.692 16.1657 0)
(210.476 17.1015 0)
(210.234 18.0662 0)
(209.97 19.0586 0)
(209.686 20.0765 0)
(209.385 21.1185 0)
(209.068 22.1853 0)
(208.733 23.2786 0)
(208.378 24.4 0)
(208.006 25.5502 0)
(207.618 26.7295 0)
(207.218 27.938 0)
(206.807 29.1758 0)
(206.388 30.4432 0)
(205.963 31.7411 0)
(205.532 33.0709 0)
(205.097 34.434 0)
(204.657 35.832 0)
(204.215 37.2666 0)
(203.772 38.7391 0)
(203.331 40.2508 0)
(202.894 41.803 0)
(202.463 43.3952 0)
(202.044 45.0277 0)
(201.645 46.7037 0)
(201.243 48.4342 0)
(200.877 50.196 0)
(200.542 52.0114 0)
(200.222 53.8742 0)
(199.946 55.788 0)
(199.718 57.7562 0)
(199.509 59.7706 0)
(199.375 61.8437 0)
(199.298 63.9704 0)
(199.261 66.1476 0)
(199.325 68.3854 0)
(199.456 70.6748 0)
(199.663 73.0165 0)
(199.996 75.4155 0)
(200.422 77.8635 0)
(200.945 80.3608 0)
(201.63 82.9082 0)
(202.424 85.4935 0)
(203.37 88.1192 0)
(204.486 90.7824 0)
(205.756 93.469 0)
(207.199 96.1699 0)
(208.856 98.8783 0)
(210.698 101.597 0)
(212.752 104.332 0)
(215.024 107.079 0)
(217.534 109.801 0)
(220.231 112.499 0)
(223.241 115.102 0)
(226.397 117.674 0)
(229.901 120.09 0)
(233.515 122.477 0)
(237.431 124.68 0)
(241.512 126.817 0)
(245.848 128.761 0)
(250.391 130.533 0)
(255.098 132.134 0)
(259.937 133.558 0)
(264.621 134.793 0)
(270.015 136.026 0)
(274.708 136.889 0)
(280.3 137.615 0)
(285.177 138.113 0)
(290.272 138.471 0)
(295.436 138.753 0)
(300.279 138.888 0)
(305.725 138.752 0)
(310.458 138.553 0)
(315.644 138.159 0)
(320.115 137.7 0)
(323.84 137.113 0)
(326.998 136.106 0)
(329.498 135.163 0)
(332.957 134.408 0)
(339.907 133.71 0)
(341.543 138.291 0)
(210 -6.09102e-09 0)
(210 -4.51759e-07 0)
(209.999 5.89362e-05 0)
(209.965 0.00574793 0)
(209.565 0.105588 0)
(208.055 0.591862 0)
(205.893 1.35189 0)
(204.729 1.91523 0)
(204.27 2.04525 0)
(204.427 2.18459 0)
(205.274 2.02663 0)
(206.382 1.75314 0)
(207.32 1.4731 0)
(208.182 1.34065 0)
(208.898 1.32819 0)
(209.338 1.48918 0)
(209.444 1.75288 0)
(209.459 2.05791 0)
(209.452 2.45455 0)
(209.495 2.87799 0)
(209.682 3.24768 0)
(209.946 3.59992 0)
(210.178 3.9824 0)
(210.35 4.40572 0)
(210.494 4.86028 0)
(210.622 5.34788 0)
(210.728 5.86885 0)
(210.818 6.41693 0)
(210.879 6.98591 0)
(210.9 7.57631 0)
(210.908 8.18192 0)
(210.888 8.81905 0)
(210.843 9.4808 0)
(210.772 10.1707 0)
(210.677 10.8881 0)
(210.561 11.6326 0)
(210.427 12.4044 0)
(210.273 13.2043 0)
(210.098 14.0339 0)
(209.9 14.8938 0)
(209.678 15.783 0)
(209.431 16.7004 0)
(209.158 17.6452 0)
(208.861 18.6164 0)
(208.542 19.6118 0)
(208.205 20.63 0)
(207.851 21.6715 0)
(207.477 22.738 0)
(207.082 23.8316 0)
(206.667 24.9533 0)
(206.234 26.1037 0)
(205.785 27.2828 0)
(205.323 28.4908 0)
(204.85 29.728 0)
(204.369 30.9949 0)
(203.879 32.2928 0)
(203.381 33.623 0)
(202.876 34.9875 0)
(202.365 36.3876 0)
(201.848 37.8245 0)
(201.33 39.2991 0)
(200.812 40.8128 0)
(200.295 42.3669 0)
(199.784 43.9627 0)
(199.28 45.6019 0)
(198.788 47.2806 0)
(198.315 49.0045 0)
(197.857 50.7784 0)
(197.409 52.6 0)
(197.008 54.4667 0)
(196.632 56.3889 0)
(196.276 58.3569 0)
(195.986 60.3865 0)
(195.733 62.4681 0)
(195.516 64.6018 0)
(195.387 66.7996 0)
(195.302 69.0497 0)
(195.289 71.3597 0)
(195.384 73.7343 0)
(195.545 76.1636 0)
(195.797 78.6525 0)
(196.19 81.2035 0)
(196.667 83.8052 0)
(197.291 86.4652 0)
(198.066 89.1769 0)
(198.979 91.9266 0)
(200.06 94.7143 0)
(201.338 97.5414 0)
(202.779 100.408 0)
(204.419 103.306 0)
(206.27 106.217 0)
(208.336 109.108 0)
(210.606 111.971 0)
(213.151 114.774 0)
(215.856 117.558 0)
(218.89 120.262 0)
(222.064 122.959 0)
(225.593 125.51 0)
(229.253 128.018 0)
(233.21 130.343 0)
(237.347 132.595 0)
(241.746 134.659 0)
(246.399 136.699 0)
(251.156 138.32 0)
(256.223 139.941 0)
(261.257 141.186 0)
(266.422 142.295 0)
(271.986 143.255 0)
(276.885 143.981 0)
(282.815 144.697 0)
(287.594 145.104 0)
(293.432 145.265 0)
(298.179 145.385 0)
(303.662 145.312 0)
(308.434 145.16 0)
(312.752 144.79 0)
(316.655 144.036 0)
(319.72 143.426 0)
(323.704 143.088 0)
(331 143.165 0)
(332.473 148.891 0)
(210 -2.15668e-09 0)
(210 -2.25301e-07 0)
(210 -2.65881e-06 0)
(209.988 0.00136797 0)
(209.778 0.0441561 0)
(208.636 0.364719 0)
(206.44 1.07372 0)
(204.848 1.73011 0)
(204.121 1.93623 0)
(204.155 2.1478 0)
(204.792 2.05352 0)
(205.843 1.76448 0)
(206.815 1.4732 0)
(207.715 1.36446 0)
(208.471 1.36321 0)
(208.96 1.49257 0)
(209.082 1.71975 0)
(209.091 1.99677 0)
(209.029 2.39254 0)
(209.036 2.80185 0)
(209.156 3.18779 0)
(209.372 3.53583 0)
(209.584 3.8978 0)
(209.733 4.29963 0)
(209.853 4.73595 0)
(209.958 5.20751 0)
(210.043 5.71398 0)
(210.113 6.24737 0)
(210.143 6.8035 0)
(210.148 7.37506 0)
(210.133 7.97152 0)
(210.091 8.59212 0)
(210.024 9.23816 0)
(209.93 9.91116 0)
(209.812 10.6106 0)
(209.673 11.3361 0)
(209.515 12.0876 0)
(209.337 12.8665 0)
(209.137 13.675 0)
(208.912 14.5136 0)
(208.662 15.3813 0)
(208.387 16.276 0)
(208.086 17.1967 0)
(207.758 18.1421 0)
(207.407 19.1106 0)
(207.036 20.1007 0)
(206.648 21.1127 0)
(206.239 22.1483 0)
(205.808 23.2096 0)
(205.355 24.2982 0)
(204.881 25.4147 0)
(204.388 26.5594 0)
(203.88 27.7322 0)
(203.359 28.9335 0)
(202.825 30.1637 0)
(202.282 31.4238 0)
(201.728 32.7152 0)
(201.163 34.0397 0)
(200.588 35.3988 0)
(200.005 36.7938 0)
(199.415 38.2259 0)
(198.821 39.6962 0)
(198.223 41.2057 0)
(197.625 42.756 0)
(197.03 44.3485 0)
(196.439 45.9845 0)
(195.856 47.6654 0)
(195.284 49.3918 0)
(194.726 51.1629 0)
(194.196 52.9861 0)
(193.666 54.8694 0)
(193.168 56.7923 0)
(192.719 58.7782 0)
(192.287 60.8186 0)
(191.897 62.9138 0)
(191.575 65.077 0)
(191.278 67.2925 0)
(191.053 69.5743 0)
(190.916 71.9219 0)
(190.824 74.3238 0)
(190.824 76.7912 0)
(190.943 79.3245 0)
(191.127 81.9125 0)
(191.451 84.5674 0)
(191.897 87.2792 0)
(192.46 90.0411 0)
(193.18 92.8616 0)
(194.07 95.7396 0)
(195.101 98.6645 0)
(196.32 101.625 0)
(197.736 104.602 0)
(199.343 107.58 0)
(201.161 110.566 0)
(203.226 113.557 0)
(205.469 116.563 0)
(208.015 119.539 0)
(210.719 122.502 0)
(213.771 125.367 0)
(216.94 128.222 0)
(220.469 130.946 0)
(224.126 133.647 0)
(228.102 136.148 0)
(232.249 138.559 0)
(236.656 140.807 0)
(241.183 142.836 0)
(246.051 144.889 0)
(250.852 146.528 0)
(256.217 148.231 0)
(261.075 149.515 0)
(266.605 150.798 0)
(271.638 151.682 0)
(277.094 152.391 0)
(282.477 152.962 0)
(287.908 153.445 0)
(293.609 153.774 0)
(298.751 153.774 0)
(303.671 153.318 0)
(307.33 152.71 0)
(311.112 152.407 0)
(317.664 152.515 0)
(319.063 157.109 0)
(210 -5.39979e-10 0)
(210 -6.91133e-08 0)
(210 -4.5815e-06 0)
(209.996 0.000182659 0)
(209.902 0.0149085 0)
(209.137 0.195557 0)
(207.099 0.788049 0)
(205.111 1.50611 0)
(204.03 1.85242 0)
(203.964 2.02413 0)
(204.355 1.99861 0)
(205.296 1.76377 0)
(206.308 1.49791 0)
(207.245 1.40226 0)