/*--------------------------------*- C++ -*----------------------------------*\
| =========                 |                                                 |
| \\      /  F ield         | OpenFOAM: The Open Source CFD Toolbox           |
|  \\    /   O peration     | Version:  2412                                  |
|   \\  /    A nd           | Website:  www.openfoam.com                      |
|    \\/     M anipulation  |                                                 |
\*---------------------------------------------------------------------------*/
FoamFile
{
    version     2.0;
    format      ascii;
    arch        "LSB;label=32;scalar=64";
    class       volVectorField;
    location    "0.073";
    object      U;
}
// * * * * * * * * * * * * * * * * * * * * * * * * * * * * * * * * * * * * * //

dimensions      [0 1 -1 0 0 0 0];

internalField   nonuniform List<vector> 
9857
(
(208.531 -0.68305 0)
(208.734 -0.678552 0)
(208.738 -1.02619 0)
(208.571 -0.812717 0)
(208.92 -0.748783 0)
(208.953 -1.09829 0)
(209.404 -1.38954 0)
(210.059 -1.58716 0)
(210.724 -1.71272 0)
(211.32 -1.8141 0)
(211.844 -1.89509 0)
(212.282 -1.96007 0)
(212.616 -2.0174 0)
(212.829 -2.0795 0)
(212.951 -2.14179 0)
(213.018 -2.19733 0)
(213.051 -2.24244 0)
(213.061 -2.27631 0)
(213.057 -2.2994 0)
(213.046 -2.31216 0)
(213.034 -2.31444 0)
(213.023 -2.30354 0)
(213.01 -2.28051 0)
(212.985 -2.24374 0)
(212.934 -2.20115 0)
(212.852 -2.14716 0)
(212.732 -2.09669 0)
(212.579 -2.02889 0)
(208.672 -0.926588 0)
(209.146 -0.81085 0)
(209.209 -1.15736 0)
(209.712 -1.43033 0)
(210.362 -1.63143 0)
(211 -1.76415 0)
(211.568 -1.86698 0)
(212.063 -1.94847 0)
(212.471 -2.01246 0)
(212.771 -2.07312 0)
(212.953 -2.13812 0)
(213.057 -2.20302 0)
(213.111 -2.26081 0)
(213.133 -2.30818 0)
(213.134 -2.34452 0)
(213.123 -2.37017 0)
(213.106 -2.38538 0)
(213.091 -2.38941 0)
(213.077 -2.37971 0)
(213.058 -2.35797 0)
(213.026 -2.32308 0)
(212.964 -2.28251 0)
(212.87 -2.23326 0)
(212.743 -2.18104 0)
(212.575 -2.11748 0)
(208.82 -1.0531 0)
(209.436 -0.892213 0)
(209.526 -1.24746 0)
(210.065 -1.4986 0)
(210.702 -1.6979 0)
(211.309 -1.83225 0)
(211.845 -1.93683 0)
(212.307 -2.0198 0)
(212.68 -2.08667 0)
(212.941 -2.15289 0)
(213.094 -2.22188 0)
(213.179 -2.28984 0)
(213.221 -2.34999 0)
(213.234 -2.39924 0)
(213.229 -2.43723 0)
(213.212 -2.46441 0)
(213.191 -2.48114 0)
(213.171 -2.48596 0)
(213.151 -2.4768 0)
(213.125 -2.45535 0)
(213.083 -2.42217 0)
(213.008 -2.38218 0)
(212.899 -2.33824 0)
(212.762 -2.28359 0)
(212.571 -2.2253 0)
(209.14 -1.20358 0)
(209.787 -0.997209 0)
(209.916 -1.34854 0)
(210.483 -1.55805 0)
(211.095 -1.75128 0)
(211.666 -1.89372 0)
(212.165 -2.00636 0)
(212.592 -2.0951 0)
(212.927 -2.1701 0)
(213.151 -2.24431 0)
(213.278 -2.32046 0)
(213.344 -2.3942 0)
(213.371 -2.45928 0)
(213.372 -2.51266 0)
(213.356 -2.55373 0)
(213.33 -2.58287 0)
(213.3 -2.60057 0)
(213.271 -2.60509 0)
(213.242 -2.59571 0)
(213.204 -2.57393 0)
(213.146 -2.54197 0)
(213.058 -2.50331 0)
(212.936 -2.46039 0)
(212.785 -2.40632 0)
(212.57 -2.35397 0)
(209.607 -1.28472 0)
(210.17 -1.09143 0)
(210.334 -1.4354 0)
(210.9 -1.63858 0)
(211.478 -1.83373 0)
(212.015 -1.97607 0)
(212.483 -2.09071 0)
(212.878 -2.1844 0)
(213.173 -2.27095 0)
(213.36 -2.35572 0)
(213.463 -2.44031 0)
(213.514 -2.51996 0)
(213.53 -2.58937 0)
(213.522 -2.64584 0)
(213.498 -2.68858 0)
(213.464 -2.71784 0)
(213.428 -2.73411 0)
(213.391 -2.73565 0)
(213.352 -2.72362 0)
(213.3 -2.70011 0)
(213.223 -2.66818 0)
(213.114 -2.63357 0)
(212.981 -2.5861 0)
(212.805 -2.53611 0)
(212.566 -2.48796 0)
(210.219 -1.28319 0)
(210.6 -1.15677 0)
(210.796 -1.49588 0)
(211.319 -1.72453 0)
(211.859 -1.91834 0)
(212.366 -2.059 0)
(212.803 -2.17859 0)
(213.164 -2.28111 0)
(213.423 -2.37824 0)
(213.58 -2.47332 0)
(213.663 -2.56675 0)
(213.697 -2.6537 0)
(213.7 -2.7292 0)
(213.68 -2.79027 0)
(213.644 -2.8356 0)
(213.598 -2.86535 0)
(213.55 -2.8799 0)
(213.504 -2.87777 0)
(213.455 -2.86191 0)
(213.391 -2.83488 0)
(213.3 -2.80232 0)
(213.177 -2.76633 0)
(213.027 -2.71905 0)
(212.825 -2.67123 0)
(212.564 -2.62619 0)
(210.993 -1.09111 0)
(210.953 -1.32643 0)
(211.193 -1.66299 0)
(211.706 -1.84791 0)
(212.235 -2.00831 0)
(212.716 -2.14502 0)
(213.123 -2.2693 0)
(213.449 -2.38035 0)
(213.673 -2.48697 0)
(213.804 -2.59172 0)
(213.871 -2.69374 0)
(213.894 -2.78816 0)
(213.889 -2.86984 0)
(213.861 -2.93525 0)
(213.815 -2.98271 0)
(213.759 -3.01276 0)
(213.698 -3.02601 0)
(213.638 -3.02151 0)
(213.572 -3.00362 0)
(213.49 -2.97393 0)
(213.379 -2.94343 0)
(213.245 -2.90141 0)
(213.07 -2.85687 0)
(212.844 -2.81032 0)
(212.561 -2.76811 0)
(212.184 -2.7582 0)
(211.928 -0.981987 0)
(211.416 -1.4383 0)
(211.628 -1.70289 0)
(212.107 -1.90652 0)
(212.614 -2.07737 0)
(213.065 -2.22558 0)
(213.44 -2.358 0)
(213.727 -2.47903 0)
(213.918 -2.59635 0)
(214.025 -2.71233 0)
(214.075 -2.82501 0)
(214.086 -2.92904 0)
(214.069 -3.01852 0)
(214.029 -3.08894 0)
(213.972 -3.13814 0)
(213.906 -3.16735 0)
(213.836 -3.17769 0)
(213.765 -3.16951 0)
(213.685 -3.14858 0)
(213.586 -3.11797 0)
(213.462 -3.08479 0)
(213.31 -3.04202 0)
(213.11 -2.99827 0)
(212.863 -2.95228 0)
(212.557 -2.91293 0)
(212.147 -2.90853 0)
(212.837 -0.704698 0)
(211.968 -1.58666 0)
(212.068 -1.80426 0)
(212.504 -1.99212 0)
(212.985 -2.15673 0)
(213.405 -2.30893 0)
(213.746 -2.44679 0)
(213.998 -2.57563 0)
(214.163 -2.70161 0)
(214.256 -2.82694 0)
(214.296 -2.94917 0)
(214.298 -3.06259 0)
(214.27 -3.16038 0)
(214.218 -3.23703 0)
(214.147 -3.28967 0)
(214.068 -3.31961 0)
(213.986 -3.328 0)
(213.901 -3.31709 0)
(213.805 -3.29376 0)
(213.687 -3.26317 0)
(213.547 -3.22755 0)
(213.369 -3.18496 0)
(213.147 -3.14208 0)
(212.882 -3.09673 0)
(212.553 -3.06075 0)
(212.107 -3.06336 0)
(211.456 -3.14875 0)
(213.825 -0.380191 0)
(212.584 -1.70365 0)
(212.531 -1.87046 0)
(212.91 -2.06276 0)
(213.351 -2.23368 0)
(213.734 -2.39328 0)
(214.04 -2.53883 0)
(214.26 -2.67746 0)
(214.401 -2.81395 0)
(214.479 -2.94941 0)
(214.508 -3.08057 0)
(214.5 -3.2018 0)
(214.459 -3.30617 0)
(214.392 -3.3878 0)
(214.306 -3.44341 0)
(214.214 -3.47403 0)
(214.122 -3.48048 0)
(214.027 -3.46616 0)
(213.917 -3.44235 0)
(213.789 -3.40665 0)
(213.628 -3.37196 0)
(213.426 -3.32941 0)
(213.183 -3.2875 0)
(212.898 -3.24287 0)
(212.542 -3.21068 0)
(212.056 -3.22136 0)
(211.354 -3.32319 0)
(214.869 0.0383995 0)
(213.216 -1.83832 0)
(213.018 -1.94218 0)
(213.318 -2.14485 0)
(213.71 -2.31742 0)
(214.057 -2.48006 0)
(214.332 -2.63089 0)
(214.527 -2.77752 0)
(214.65 -2.92394 0)
(214.713 -3.06959 0)
(214.73 -3.20939 0)
(214.711 -3.33705 0)
(214.659 -3.44614 0)
(214.579 -3.53102 0)
(214.481 -3.58887 0)
(214.376 -3.62093 0)
(214.268 -3.62753 0)
(214.156 -3.61422 0)
(214.033 -3.58705 0)
(213.887 -3.55191 0)
(213.703 -3.51649 0)
(213.481 -3.4744 0)
(213.22 -3.43403 0)
(212.913 -3.39052 0)
(212.528 -3.36333 0)
(212 -3.384 0)
(211.246 -3.50402 0)
(210.238 -3.76452 0)
(216 0.536777 0)
(213.846 -1.96343 0)
(213.533 -2.01177 0)
(213.724 -2.21854 0)
(214.067 -2.39401 0)
(214.379 -2.56238 0)
(214.628 -2.72139 0)
(214.803 -2.87701 0)
(214.908 -3.03281 0)
(214.954 -3.18817 0)
(214.951 -3.33794 0)
(214.909 -3.47436 0)
(214.837 -3.58958 0)
(214.742 -3.67818 0)
(214.634 -3.73707 0)
(214.52 -3.76862 0)
(214.403 -3.77444 0)
(214.28 -3.75975 0)
(214.144 -3.73085 0)
(213.979 -3.69671 0)
(213.775 -3.66103 0)
(213.534 -3.61978 0)
(213.252 -3.58092 0)
(212.922 -3.53891 0)
(212.503 -3.51718 0)
(211.931 -3.5495 0)
(211.125 -3.68874 0)
(210.076 -3.96722 0)
(217.196 1.12901 0)
(214.482 -2.06743 0)
(214.065 -2.10065 0)
(214.123 -2.30088 0)
(214.412 -2.48542 0)
(214.69 -2.66269 0)
(214.913 -2.83043 0)
(215.068 -2.99271 0)
(215.159 -3.15278 0)
(215.193 -3.31029 0)
(215.177 -3.46153 0)
(215.12 -3.60083 0)
(215.032 -3.72116 0)
(214.92 -3.81481 0)
(214.798 -3.8763 0)
(214.671 -3.91025 0)
(214.542 -3.91663 0)
(214.406 -3.90088 0)
(214.251 -3.87328 0)
(214.067 -3.84044 0)
(213.845 -3.8049 0)
(213.586 -3.76497 0)
(213.285 -3.72779 0)
(212.93 -3.68856 0)
(212.477 -3.67521 0)
(211.857 -3.72004 0)
(210.999 -3.87918 0)
(209.913 -4.17398 0)
(208.699 -4.5487 0)
(207.495 -4.93076 0)
(206.401 -5.26078 0)
(205.458 -5.50707 0)
(204.65 -5.66097 0)
(203.941 -5.73587 0)
(203.297 -5.75412 0)
(202.693 -5.73488 0)
(202.111 -5.6908 0)
(201.545 -5.62719 0)
(200.989 -5.54707 0)
(200.435 -5.45448 0)
(199.878 -5.3535 0)
(199.313 -5.24701 0)
(198.738 -5.13669 0)
(198.152 -5.02377 0)
(197.553 -4.90922 0)
(196.941 -4.79382 0)
(196.315 -4.6783 0)
(195.677 -4.56339 0)
(195.025 -4.44992 0)
(194.361 -4.33864 0)
(193.683 -4.23031 0)
(192.993 -4.12562 0)
(192.289 -4.02536 0)
(191.571 -3.93039 0)
(190.837 -3.84182 0)
(190.086 -3.76075 0)
(189.318 -3.68838 0)
(188.531 -3.62592 0)
(187.723 -3.57473 0)
(186.894 -3.53612 0)
(218.451 1.81208 0)
(215.128 -2.16373 0)
(214.606 -2.20235 0)
(214.53 -2.37385 0)
(214.763 -2.56323 0)
(215.013 -2.74825 0)
(215.211 -2.92734 0)
(215.342 -3.10151 0)
(215.408 -3.27225 0)
(215.417 -3.43766 0)
(215.38 -3.59335 0)
(215.306 -3.73517 0)
(215.201 -3.85863 0)
(215.077 -3.95249 0)
(214.945 -4.01487 0)
(214.809 -4.05094 0)
(214.67 -4.05667 0)
(214.523 -4.04096 0)
(214.353 -4.01416 0)
(214.151 -3.98283 0)
(213.911 -3.94785 0)
(213.633 -3.90972 0)
(213.311 -3.87424 0)
(212.929 -3.83879 0)
(212.438 -3.83456 0)
(211.769 -3.89398 0)
(210.863 -4.07297 0)
(209.746 -4.38215 0)
(208.528 -4.75984 0)
(207.341 -5.13451 0)
(206.272 -5.45188 0)
(205.349 -5.68545 0)
(204.554 -5.83034 0)
(203.852 -5.89984 0)
(203.21 -5.9154 0)
(202.605 -5.8953 0)
(202.023 -5.85121 0)
(201.456 -5.78808 0)
(200.898 -5.70912 0)
(200.341 -5.61853 0)
(199.78 -5.52035 0)
(199.212 -5.41725 0)
(198.634 -5.31079 0)
(198.044 -5.20214 0)
(197.443 -5.0922 0)
(196.829 -4.98173 0)
(196.202 -4.87149 0)
(195.564 -4.76225 0)
(194.912 -4.65488 0)
(194.249 -4.55013 0)
(193.573 -4.44876 0)
(192.885 -4.35144 0)
(192.185 -4.25901 0)
(191.471 -4.17242 0)
(190.741 -4.09283 0)
(189.995 -4.02132 0)
(189.232 -3.95917 0)
(188.45 -3.90766 0)
(187.649 -3.8682 0)
(186.825 -3.84209 0)
(219.759 2.58643 0)
(215.793 -2.2384 0)
(215.146 -2.30561 0)
(214.942 -2.44141 0)
(215.113 -2.64049 0)
(215.336 -2.83422 0)
(215.511 -3.02148 0)
(215.621 -3.20231 0)
(215.666 -3.37884 0)
(215.654 -3.54981 0)
(215.596 -3.71071 0)
(215.504 -3.85759 0)
(215.381 -3.98606 0)
(215.244 -4.07955 0)
(215.098 -4.14697 0)
(214.95 -4.18545 0)
(214.8 -4.19174 0)
(214.638 -4.17795 0)
(214.452 -4.1528 0)
(214.232 -4.12345 0)
(213.975 -4.08953 0)
(213.679 -4.05383 0)
(213.338 -4.02055 0)
(212.927 -3.99064 0)
(212.396 -3.99687 0)
(211.676 -4.07285 0)
(210.724 -4.27145 0)
(209.581 -4.5927 0)
(208.363 -4.97081 0)
(207.194 -5.33647 0)
(206.147 -5.64046 0)
(205.241 -5.86096 0)
(204.455 -5.99635 0)
(203.756 -6.05985 0)
(203.115 -6.07214 0)
(202.51 -6.05069 0)
(201.927 -6.00625 0)
(201.359 -5.94348 0)
(200.799 -5.86573 0)
(200.24 -5.77722 0)
(199.677 -5.68185 0)
(199.105 -5.58209 0)
(198.524 -5.4794 0)
(197.931 -5.37487 0)
(197.327 -5.26936 0)
(196.711 -5.1636 0)
(196.084 -5.05839 0)
(195.445 -4.95459 0)
(194.793 -4.85307 0)
(194.131 -4.75462 0)
(193.457 -4.65998 0)
(192.771 -4.56984 0)
(192.074 -4.48512 0)
(191.363 -4.40681 0)
(190.637 -4.33611 0)
(189.895 -4.27417 0)
(189.137 -4.22224 0)
(188.361 -4.18163 0)
(187.564 -4.15383 0)
(186.746 -4.1402 0)
(221.107 3.45267 0)
(216.483 -2.29698 0)
(215.67 -2.44256 0)
(215.344 -2.53958 0)
(215.444 -2.74088 0)
(215.636 -2.93963 0)
(215.787 -3.1324 0)
(215.875 -3.31756 0)
(215.901 -3.49725 0)
(215.87 -3.67077 0)
(215.793 -3.83489 0)
(215.681 -3.98674 0)
(215.546 -4.11341 0)
(215.395 -4.20786 0)
(215.238 -4.27909 0)
(215.08 -4.31756 0)
(214.92 -4.32456 0)
(214.746 -4.31317 0)
(214.545 -4.28961 0)
(214.308 -4.26254 0)
(214.033 -4.22998 0)
(213.719 -4.19723 0)
(213.356 -4.16649 0)
(212.914 -4.14303 0)
(212.341 -4.16092 0)
(211.571 -4.2544 0)
(210.577 -4.47201 0)
(209.415 -4.80331 0)
(208.202 -5.18014 0)
(207.054 -5.53629 0)
(206.031 -5.82754 0)
(205.142 -6.03625 0)
(204.367 -6.16334 0)
(203.674 -6.22176 0)
(203.035 -6.23133 0)
(202.43 -6.20878 0)
(201.846 -6.16402 0)
(201.277 -6.10158 0)
(200.715 -6.02496 0)
(200.153 -5.9384 0)
(199.587 -5.8457 0)
(199.012 -5.74914 0)
(198.428 -5.65012 0)
(197.832 -5.54964 0)
(197.227 -5.44849 0)
(196.61 -5.34738 0)
(195.982 -5.24715 0)
(195.343 -5.14869 0)
(194.693 -5.05292 0)
(194.032 -4.96062 0)
(193.361 -4.87252 0)
(192.679 -4.78935 0)
(191.986 -4.7121 0)
(191.279 -4.64185 0)
(190.558 -4.57977 0)
(189.822 -4.52696 0)
(189.07 -4.48475 0)
(188.3 -4.45468 0)
(187.509 -4.43819 0)
(186.697 -4.43667 0)
(222.491 4.39925 0)
(217.185 -2.36552 0)
(216.217 -2.55299 0)
(215.767 -2.60811 0)
(215.788 -2.8126 0)
(215.945 -3.02299 0)
(216.066 -3.22914 0)
(216.126 -3.42494 0)
(216.131 -3.61084 0)
(216.084 -3.78704 0)
(215.993 -3.9531 0)
(215.865 -4.1089 0)
(215.715 -4.23433 0)
(215.55 -4.33186 0)
(215.383 -4.40531 0)
(215.215 -4.44368 0)
(215.042 -4.4531 0)
(214.853 -4.44525 0)
(214.636 -4.42402 0)
(214.382 -4.39978 0)
(214.091 -4.36899 0)
(213.76 -4.33992 0)
(213.373 -4.31281 0)
(212.898 -4.29711 0)
(212.281 -4.32831 0)
(211.462 -4.44017 0)
(210.43 -4.67551 0)
(209.253 -5.01442 0)
(208.048 -5.38789 0)
(206.92 -5.73335 0)
(205.916 -6.01127 0)
(205.041 -6.2079 0)
(204.274 -6.32628 0)
(203.584 -6.37915 0)
(202.947 -6.38563 0)
(202.341 -6.36171 0)
(201.757 -6.3165 0)
(201.187 -6.2544 0)
(200.624 -6.17902 0)
(200.06 -6.09451 0)
(199.491 -6.00448 0)
(198.913 -5.91106 0)
(198.326 -5.81558 0)
(197.728 -5.71896 0)
(197.12 -5.62194 0)
(196.502 -5.52526 0)
(195.874 -5.42978 0)
(195.236 -5.33644 0)
(194.587 -5.2462 0)
(193.928 -5.15982 0)
(193.259 -5.07805 0)
(192.58 -5.00169 0)
(191.89 -4.93179 0)
(191.187 -4.86944 0)
(190.47 -4.81583 0)
(189.74 -4.7722 0)
(188.993 -4.73987 0)
(188.228 -4.72039 0)
(187.444 -4.71529 0)
(186.637 -4.72578 0)
(223.911 5.4276 0)
(217.903 -2.40647 0)
(216.765 -2.66593 0)
(216.197 -2.67578 0)
(216.133 -2.88027 0)
(216.254 -3.09519 0)
(216.348 -3.30997 0)
(216.379 -3.51899 0)
(216.356 -3.71748 0)
(216.285 -3.90231 0)
(216.177 -4.07569 0)
(216.039 -4.22898 0)
(215.87 -4.35719 0)
(215.692 -4.45766 0)
(215.516 -4.53166 0)
(215.34 -4.56906 0)
(215.157 -4.58052 0)
(214.954 -4.57552 0)
(214.722 -4.55674 0)
(214.452 -4.5354 0)
(214.144 -4.50681 0)
(213.793 -4.48194 0)
(213.381 -4.45915 0)
(212.871 -4.45355 0)
(212.209 -4.49776 0)
(211.343 -4.62824 0)
(210.278 -4.87975 0)
(209.093 -5.22435 0)
(207.9 -5.59338 0)
(206.794 -5.92824 0)
(205.811 -6.19371 0)
(204.951 -6.37951 0)
(204.193 -6.49019 0)
(203.509 -6.5382 0)
(202.873 -6.54197 0)
(202.268 -6.51677 0)
(201.684 -6.47108 0)
(201.112 -6.40926 0)
(200.546 -6.33502 0)
(199.98 -6.25246 0)
(199.408 -6.16501 0)
(198.827 -6.07463 0)
(198.237 -5.98259 0)
(197.638 -5.88975 0)
(197.028 -5.79681 0)
(196.41 -5.70448 0)
(195.783 -5.61368 0)
(195.145 -5.52538 0)
(194.499 -5.44052 0)
(193.842 -5.35988 0)
(193.177 -5.28423 0)
(192.502 -5.21446 0)
(191.816 -5.15169 0)
(191.119 -5.09704 0)
(190.408 -5.05165 0)
(189.684 -5.01665 0)
(188.943 -4.99362 0)
(188.185 -4.98431 0)
(187.406 -4.99001 0)
(186.607 -5.01218 0)
(225.363 6.54045 0)
(218.644 -2.43588 0)
(217.299 -2.81649 0)
(216.606 -2.78664 0)
(216.451 -2.98021 0)
(216.533 -3.19103 0)
(216.61 -3.40291 0)
(216.624 -3.61308 0)
(216.58 -3.81731 0)
(216.49 -4.00974 0)
(216.365 -4.1906 0)
(216.211 -4.34617 0)
(216.028 -4.47539 0)
(215.841 -4.57842 0)
(215.655 -4.65273 0)
(215.468 -4.69051 0)
(215.272 -4.70516 0)
(215.055 -4.7032 0)
(214.807 -4.68744 0)
(214.521 -4.66901 0)
(214.198 -4.64334 0)
(213.828 -4.62353 0)
(213.389 -4.60642 0)
(212.842 -4.61213 0)
(212.133 -4.67126 0)
(211.222 -4.81987 0)
(210.129 -5.08536 0)
(208.938 -5.43319 0)
(207.758 -5.79613 0)
(206.671 -6.11956 0)
(205.706 -6.37219 0)
(204.858 -6.54695 0)
(204.106 -6.6496 0)
(203.425 -6.69245 0)
(202.791 -6.69331 0)
(202.187 -6.66673 0)
(201.602 -6.62058 0)
(201.03 -6.55913 0)
(200.462 -6.48615 0)
(199.893 -6.40561 0)
(199.319 -6.32071 0)
(198.736 -6.23328 0)
(198.143 -6.14452 0)
(197.541 -6.05524 0)
(196.931 -5.96614 0)
(196.312 -5.87795 0)
(195.685 -5.79162 0)
(195.049 -5.70814 0)
(194.404 -5.62846 0)
(193.75 -5.55334 0)
(193.088 -5.48365 0)
(192.417 -5.42033 0)
(191.735 -5.36455 0)
(191.041 -5.31739 0)
(190.336 -5.28005 0)
(189.617 -5.25391 0)
(188.883 -5.24046 0)
(188.13 -5.24136 0)
(187.358 -5.25805 0)
(186.566 -5.29185 0)
(226.831 7.72666 0)
(219.396 -2.48532 0)
(217.86 -2.95057 0)
(217.024 -2.88931 0)
(216.767 -3.07568 0)
(216.799 -3.29005 0)
(216.851 -3.50467 0)
(216.848 -3.71634 0)
(216.79 -3.92126 0)
(216.685 -4.11893 0)
(216.548 -4.30011 0)
(216.373 -4.46265 0)
(216.175 -4.59454 0)
(215.978 -4.70034 0)
(215.784 -4.77418 0)
(215.588 -4.81229 0)
(215.382 -4.82952 0)
(215.151 -4.82969 0)
(214.888 -4.81696 0)
(214.586 -4.80121 0)
(214.245 -4.77911 0)
(213.854 -4.7647 0)
(213.387 -4.75411 0)
(212.8 -4.77192 0)
(212.046 -4.84693 0)
(211.094 -5.01322 0)
(209.978 -5.29071 0)
(208.788 -5.64006 0)
(207.625 -5.99636 0)
(206.559 -6.30877 0)
(205.611 -6.54957 0)
(204.776 -6.71442 0)
(204.033 -6.80987 0)
(203.356 -6.84804 0)
(202.724 -6.84623 0)
(202.121 -6.81827 0)
(201.535 -6.77159 0)
(200.961 -6.71044 0)
(200.391 -6.63865 0)
(199.819 -6.56005 0)
(199.242 -6.47764 0)
(198.656 -6.39308 0)
(198.062 -6.30752 0)
(197.459 -6.22173 0)
(196.848 -6.1364 0)
(196.23 -6.05227 0)
(195.604 -5.97032 0)
(194.97 -5.89155 0)
(194.327 -5.81687 0)
(193.677 -5.74708 0)
(193.019 -5.68312 0)
(192.352 -5.62603 0)
(191.675 -5.57701 0)
(190.988 -5.53715 0)
(190.29 -5.50759 0)
(189.577 -5.48966 0)
(188.848 -5.48514 0)
(188.102 -5.4958 0)
(187.337 -5.5228 0)
(186.553 -5.56841 0)
(228.324 8.97614 0)
(220.142 -2.54779 0)
(218.456 -3.01812 0)
(217.469 -2.9316 0)
(217.103 -3.13244 0)
(217.074 -3.36378 0)
(217.094 -3.59358 0)
(217.065 -3.81606 0)
(216.986 -4.02764 0)
(216.869 -4.22918 0)
(216.721 -4.4108 0)
(216.533 -4.57521 0)
(216.328 -4.70758 0)
(216.123 -4.81561 0)
(215.918 -4.88992 0)
(215.711 -4.93067 0)
(215.492 -4.95161 0)
(215.247 -4.95418 0)
(214.969 -4.94475 0)
(214.652 -4.9316 0)
(214.295 -4.91405 0)
(213.882 -4.90575 0)
(213.383 -4.90319 0)
(212.755 -4.93472 0)
(211.955 -5.02593 0)
(210.966 -5.20894 0)
(209.832 -5.49602 0)
(208.643 -5.84471 0)
(207.495 -6.19307 0)
(206.447 -6.49384 0)
(205.515 -6.72255 0)
(204.69 -6.87734 0)
(203.953 -6.96538 0)
(203.28 -6.99874 0)
(202.65 -6.99422 0)
(202.047 -6.96491 0)
(201.461 -6.91781 0)
(200.885 -6.85707 0)
(200.313 -6.78656 0)
(199.739 -6.70993 0)
(199.159 -6.62995 0)
(198.571 -6.54814 0)
(197.975 -6.4656 0)
(197.371 -6.38308 0)
(196.76 -6.30128 0)
(196.142 -6.221 0)
(195.516 -6.14324 0)
(194.884 -6.06897 0)
(194.244 -5.9991 0)
(193.597 -5.93447 0)
(192.942 -5.87611 0)
(192.279 -5.82513 0)
(191.607 -5.78271 0)
(190.924 -5.7499 0)
(190.231 -5.72801 0)
(189.525 -5.71868 0)
(188.803 -5.72336 0)
(188.063 -5.7439 0)
(187.306 -5.78215 0)
(186.527 -5.83622 0)
(229.839 10.3048 0)
(220.913 -2.56153 0)
(219.013 -3.16026 0)
(217.902 -3.01618 0)
(217.434 -3.20791 0)
(217.346 -3.43626 0)
(217.338 -3.67087 0)
(217.285 -3.90139 0)
(217.186 -4.12108 0)
(217.053 -4.32841 0)
(216.884 -4.51937 0)
(216.68 -4.68836 0)
(216.466 -4.82263 0)
(216.255 -4.93207 0)
(216.043 -5.00575 0)
(215.827 -5.04884 0)
(215.596 -5.07297 0)
(215.338 -5.07776 0)
(215.045 -5.07166 0)
(214.713 -5.06112 0)
(214.338 -5.0487 0)
(213.901 -5.04663 0)
(213.368 -5.05269 0)
(212.7 -5.09909 0)
(211.856 -5.20666 0)
(210.834 -5.40532 0)
(209.688 -5.70013 0)
(208.506 -6.04701 0)
(207.376 -6.38728 0)
(206.347 -6.67697 0)
(205.43 -6.89457 0)
(204.617 -7.04027 0)
(203.886 -7.12152 0)
(203.217 -7.15044 0)
(202.589 -7.14334 0)
(201.986 -7.11265 0)
(201.399 -7.06506 0)
(200.822 -7.00466 0)
(200.248 -6.93537 0)
(199.671 -6.86065 0)
(199.088 -6.78306 0)
(198.498 -6.70394 0)
(197.9 -6.62434 0)
(197.296 -6.54501 0)
(196.685 -6.46667 0)
(196.068 -6.39015 0)
(195.444 -6.31646 0)
(194.814 -6.24654 0)
(194.178 -6.18128 0)
(193.535 -6.12161 0)
(192.885 -6.06863 0)
(192.227 -6.02352 0)
(191.56 -5.98742 0)
(190.885 -5.96147 0)
(190.199 -5.94695 0)
(189.498 -5.94538 0)
(188.782 -5.9587 0)
(188.05 -5.98905 0)
(187.297 -6.03535 0)
(186.532 -6.10142 0)
(231.37 11.7129 0)
(221.727 -2.55985 0)
(219.547 -3.35272 0)
(218.295 -3.15435 0)
(217.733 -3.32045 0)
(217.593 -3.53142 0)
(217.563 -3.76118 0)
(217.49 -3.99295 0)
(217.372 -4.21957 0)
(217.228 -4.42518 0)
(217.045 -4.6228 0)
(216.831 -4.79315 0)
(216.61 -4.92981 0)
(216.391 -5.04169 0)
(216.171 -5.11636 0)
(215.946 -5.16337 0)
(215.702 -5.19137 0)
(215.43 -5.19914 0)
(215.122 -5.19671 0)
(214.777 -5.1892 0)
(214.383 -5.18282 0)
(213.92 -5.18777 0)
(213.353 -5.20523 0)
(212.64 -5.26629 0)
(211.755 -5.39003 0)
(210.704 -5.60264 0)
(209.548 -5.90285 0)
(208.374 -6.24624 0)
(207.259 -6.57747 0)
(206.246 -6.8556 0)
(205.342 -7.06193 0)
(204.537 -7.19842 0)
(203.813 -7.2728 0)
(203.147 -7.2973 0)
(202.521 -7.28769 0)
(201.918 -7.25575 0)
(201.331 -7.20781 0)
(200.753 -7.14786 0)
(200.176 -7.07983 0)
(199.597 -7.00701 0)
(199.012 -6.93172 0)
(198.42 -6.85515 0)
(197.821 -6.77831 0)
(197.215 -6.70194 0)
(196.605 -6.62685 0)
(195.988 -6.5539 0)
(195.366 -6.48408 0)
(194.739 -6.41832 0)
(194.105 -6.35752 0)
(193.466 -6.30266 0)
(192.82 -6.25496 0)
(192.166 -6.21559 0)
(191.505 -6.18568 0)
(190.834 -6.16635 0)
(190.153 -6.15916 0)
(189.46 -6.16589 0)
(188.751 -6.18842 0)
(188.023 -6.22711 0)
(187.283 -6.28409 0)
(186.527 -6.36032 0)
(232.89 13.1681 0)
(222.539 -2.6092 0)
(220.134 -3.45471 0)
(218.708 -3.26529 0)
(218.029 -3.431 0)
(217.825 -3.62886 0)
(217.775 -3.85246 0)
(217.688 -4.08109 0)
(217.556 -4.3095 0)
(217.394 -4.522 0)
(217.191 -4.72709 0)
(216.966 -4.89939 0)
(216.74 -5.0383 0)
(216.516 -5.1514 0)
(216.29 -5.22672 0)
(216.057 -5.27728 0)
(215.802 -5.30844 0)
(215.516 -5.31938 0)
(215.194 -5.32082 0)
(214.833 -5.31682 0)
(214.42 -5.31677 0)
(213.931 -5.32897 0)
(213.326 -5.35863 0)
(212.572 -5.43536 0)
(211.647 -5.57453 0)
(210.573 -5.79957 0)
(209.414 -6.10362 0)
(208.25 -6.44289 0)
(207.152 -6.76526 0)
(206.156 -7.03248 0)
(205.266 -7.22844 0)
(204.471 -7.35647 0)
(203.753 -7.42446 0)
(203.091 -7.4448 0)
(202.466 -7.43276 0)
(201.863 -7.39954 0)
(201.275 -7.35119 0)
(200.695 -7.29164 0)
(200.116 -7.22482 0)
(199.534 -7.15387 0)
(198.946 -7.08082 0)
(198.352 -7.00674 0)
(197.753 -6.93258 0)
(197.148 -6.85912 0)
(196.538 -6.78718 0)
(195.923 -6.71768 0)
(195.303 -6.65159 0)
(194.679 -6.58981 0)
(194.049 -6.53327 0)
(193.414 -6.48303 0)
(192.773 -6.44036 0)
(192.125 -6.40643 0)
(191.47 -6.3824 0)
(190.807 -6.36953 0)
(190.133 -6.36932 0)
(189.444 -6.38364 0)
(188.741 -6.41406 0)
(188.024 -6.46151 0)
(187.292 -6.52782 0)
(186.544 -6.61398 0)
(234.415 14.6525 0)
(223.284 -2.74499 0)
(220.779 -3.44662 0)
(219.161 -3.29733 0)
(218.343 -3.50423 0)
(218.057 -3.71265 0)
(217.971 -3.94396 0)
(217.871 -4.17349 0)
(217.732 -4.39699 0)
(217.555 -4.6142 0)
(217.34 -4.82275 0)
(217.107 -4.99658 0)
(216.874 -5.13911 0)
(216.644 -5.25429 0)
(216.412 -5.33191 0)
(216.169 -5.38725 0)
(215.902 -5.4221 0)
(215.603 -5.43699 0)
(215.268 -5.44272 0)
(214.892 -5.4431 0)
(214.46 -5.45019 0)
(213.941 -5.47088 0)
(213.298 -5.51416 0)
(212.5 -5.60704 0)
(211.539 -5.76072 0)
(210.445 -5.99607 0)
(209.283 -6.3019 0)
(208.129 -6.63583 0)
(207.046 -6.94867 0)
(206.064 -7.20465 0)
(205.185 -7.39014 0)
(204.399 -7.50967 0)
(203.686 -7.5713 0)
(203.027 -7.58762 0)
(202.404 -7.5733 0)
(201.802 -7.53896 0)
(201.213 -7.49033 0)
(200.631 -7.43128 0)
(200.05 -7.3657 0)
(199.465 -7.29654 0)
(198.875 -7.22562 0)
(198.28 -7.15388 0)
(197.68 -7.08221 0)
(197.075 -7.01145 0)
(196.465 -6.94248 0)
(195.852 -6.87625 0)
(195.234 -6.81371 0)
(194.613 -6.75574 0)
(193.987 -6.70333 0)
(193.356 -6.65761 0)
(192.718 -6.61987 0)
(192.075 -6.59129 0)
(191.426 -6.57309 0)
(190.767 -6.56646 0)
(190.099 -6.57348 0)
(189.418 -6.59589 0)
(188.722 -6.63377 0)
(188.013 -6.69044 0)
(187.291 -6.76613 0)
(186.555 -6.86215 0)
(235.968 16.2102 0)
(224.067 -2.80119 0)
(221.372 -3.57595 0)
(219.619 -3.3516 0)
(218.666 -3.56043 0)
(218.297 -3.77372 0)
(218.17 -4.02017 0)
(218.048 -4.26147 0)
(217.896 -4.48655 0)
(217.7 -4.71038 0)
(217.474 -4.92066 0)
(217.234 -5.09482 0)
(216.996 -5.24032 0)
(216.762 -5.35683 0)
(216.524 -5.43666 0)
(216.274 -5.49622 0)
(215.997 -5.53429 0)
(215.685 -5.55342 0)
(215.336 -5.56363 0)
(214.944 -5.56894 0)
(214.49 -5.58334 0)
(213.941 -5.61322 0)
(213.259 -5.6712 0)
(212.421 -5.7799 0)
(211.428 -5.94723 0)
(210.32 -6.19132 0)
(209.16 -6.49778 0)
(208.019 -6.82614 0)
(206.952 -7.12977 0)
(205.985 -7.37518 0)
(205.118 -7.55101 0)
(204.34 -7.6626 0)
(203.633 -7.71827 0)
(202.977 -7.73076 0)
(202.354 -7.7142 0)
(201.752 -7.6787 0)
(201.162 -7.62977 0)
(200.578 -7.57119 0)
(199.994 -7.50682 0)
(199.406 -7.43943 0)
(198.815 -7.37057 0)
(198.219 -7.30109 0)
(197.618 -7.23186 0)
(197.014 -7.16372 0)
(196.406 -7.09763 0)
(195.794 -7.03453 0)
(195.18 -6.97536 0)
(194.561 -6.92102 0)
(193.94 -6.87254 0)
(193.313 -6.83111 0)
(192.682 -6.79803 0)
(192.045 -6.77447 0)
(191.402 -6.76171 0)
(190.751 -6.76127 0)
(190.089 -6.77522 0)
(189.412 -6.80361 0)
(188.725 -6.84998 0)
(188.026 -6.91483 0)
(187.313 -6.99909 0)
(186.586 -7.10438 0)
(237.515 17.8757 0)
(224.936 -2.68597 0)
(221.895 -3.80031 0)
(220.011 -3.49297 0)
(218.963 -3.65139 0)
(218.528 -3.83888 0)
(218.367 -4.08963 0)
(218.228 -4.3372 0)
(218.059 -4.56942 0)
(217.846 -4.80009 0)
(217.611 -5.01166 0)
(217.365 -5.18601 0)
(217.123 -5.33425 0)
(216.883 -5.45258 0)
(216.639 -5.53633 0)
(216.38 -5.60112 0)
(216.091 -5.64299 0)
(215.768 -5.66701 0)
(215.406 -5.68213 0)
(214.999 -5.69335 0)
(214.522 -5.71599 0)
(213.94 -5.75643 0)
(213.218 -5.83038 0)
(212.34 -5.95455 0)
(211.318 -6.13418 0)
(210.198 -6.38494 0)
(209.04 -6.69041 0)
(207.91 -7.01232 0)
(206.856 -7.30626 0)
(205.901 -7.54089 0)
(205.045 -7.70702 0)
(204.275 -7.81072 0)
(203.573 -7.86058 0)
(202.92 -7.86944 0)
(202.298 -7.85083 0)
(201.696 -7.81435 0)
(201.105 -7.76524 0)
(200.519 -7.70721 0)
(199.932 -7.64404 0)
(199.343 -7.5783 0)
(198.749 -7.51136 0)
(198.152 -7.44397 0)
(197.552 -7.37699 0)
(196.948 -7.31132 0)
(196.341 -7.24794 0)
(195.731 -7.18779 0)
(195.119 -7.13184 0)
(194.504 -7.08099 0)
(193.886 -7.03635 0)
(193.264 -6.99911 0)
(192.637 -6.9706 0)
(192.006 -6.95206 0)
(191.368 -6.94472 0)
(190.721 -6.95061 0)
(190.064 -6.97071 0)
(189.397 -7.00702 0)
(188.719 -7.0611 0)
(188.028 -7.134 0)
(187.326 -7.22696 0)
(186.611 -7.34156 0)
(239.02 19.5627 0)
(225.862 -2.65434 0)
(222.513 -3.91871 0)
(220.383 -3.65128 0)
(219.223 -3.76954 0)
(218.737 -3.92102 0)
(218.554 -4.1666 0)
(218.401 -4.41253 0)
(218.212 -4.6542 0)
(217.982 -4.89117 0)
(217.736 -5.10417 0)
(217.484 -5.27925 0)
(217.238 -5.42949 0)
(216.995 -5.54844 0)
(216.745 -5.63555 0)
(216.478 -5.70487 0)
(216.179 -5.75044 0)
(215.843 -5.77958 0)
(215.469 -5.79969 0)
(215.045 -5.81718 0)
(214.544 -5.84841 0)
(213.928 -5.90076 0)
(213.167 -5.99058 0)
(212.253 -6.12965 0)
(211.208 -6.32047 0)
(210.08 -6.5766 0)
(208.928 -6.88042 0)
(207.811 -7.19591 0)
(206.772 -7.48056 0)
(205.831 -7.70503 0)
(204.985 -7.86213 0)
(204.223 -7.95841 0)
(203.526 -8.00277 0)
(202.875 -8.00815 0)
(202.253 -7.98751 0)
(201.65 -7.95004 0)
(201.058 -7.90075 0)
(200.469 -7.84326 0)
(199.88 -7.78126 0)
(199.289 -7.71713 0)
(198.694 -7.65204 0)
(198.096 -7.58667 0)
(197.496 -7.52189 0)
(196.893 -7.45861 0)
(196.288 -7.39783 0)
(195.681 -7.34049 0)
(195.072 -7.28757 0)
(194.461 -7.24002 0)
(193.847 -7.19897 0)
(193.23 -7.1657 0)
(192.61 -7.14146 0)
(191.984 -7.12748 0)
(191.353 -7.12544 0)
(190.714 -7.13715 0)
(190.064 -7.16338 0)
(189.403 -7.20632 0)
(188.733 -7.26748 0)
(188.051 -7.34794 0)
(187.359 -7.44901 0)
(186.653 -7.57236 0)
(240.487 21.1869 0)
(226.515 -2.97022 0)
(223.254 -3.8293 0)
(220.819 -3.71984 0)
(219.484 -3.8704 0)
(218.931 -4.00476 0)
(218.732 -4.24683 0)
(218.571 -4.48832 0)
(218.363 -4.7365 0)
(218.12 -4.97717 0)
(217.866 -5.19019 0)
(217.609 -5.36603 0)
(217.36 -5.51849 0)
(217.11 -5.63875 0)
(216.854 -5.73029 0)
(216.578 -5.8046 0)
(216.268 -5.85452 0)
(215.922 -5.88929 0)
(215.535 -5.91482 0)
(215.093 -5.93954 0)
(214.566 -5.98057 0)
(213.915 -6.04656 0)
(213.114 -6.15269 0)
(212.166 -6.30552 0)
(211.099 -6.50595 0)
(209.966 -6.76565 0)
(208.819 -7.06668 0)
(207.712 -7.37514 0)
(206.686 -7.65013 0)
(205.756 -7.86433 0)
(204.92 -8.01243 0)
(204.164 -8.1014 0)
(203.471 -8.14051 0)
(202.823 -8.14264 0)
(202.202 -8.12016 0)
(201.599 -8.08187 0)
(201.005 -8.03251 0)
(200.414 -7.97561 0)
(199.823 -7.91474 0)
(199.23 -7.85209 0)
(198.634 -7.78868 0)
(198.036 -7.72518 0)
(197.436 -7.66243 0)
(196.834 -7.6014 0)
(196.23 -7.54306 0)
(195.625 -7.48838 0)
(195.019 -7.43834 0)
(194.411 -7.39399 0)
(193.802 -7.35649 0)
(193.189 -7.32706 0)
(192.574 -7.30704 0)
(191.954 -7.29775 0)
(191.328 -7.30118 0)
(190.692 -7.31795 0)
(190.05 -7.35081 0)
(189.399 -7.40072 0)
(188.737 -7.46914 0)
(188.067 -7.5572 0)
(187.384 -7.66644 0)
(186.69 -7.79852 0)
(241.972 22.7908 0)
(227.13 -3.21838 0)
(223.997 -3.63222 0)
(221.312 -3.65525 0)
(219.771 -3.92151 0)
(219.124 -4.08369 0)
(218.9 -4.33021 0)
(218.73 -4.56943 0)
(218.506 -4.82168 0)
(218.25 -5.06577 0)
(217.988 -5.2795 0)
(217.726 -5.45604 0)
(217.472 -5.6095 0)
(217.218 -5.73 0)
(216.956 -5.82512 0)
(216.671 -5.90351 0)
(216.351 -5.95773 0)
(215.992 -5.99819 0)
(215.592 -6.02915 0)
(215.132 -6.06133 0)
(214.579 -6.11269 0)
(213.893 -6.19324 0)
(213.054 -6.31559 0)
(212.075 -6.4811 0)
(210.993 -6.68994 0)
(209.858 -6.95226 0)
(208.718 -7.25024 0)
(207.625 -7.55186 0)
(206.612 -7.81761 0)
(205.694 -8.02212 0)
(204.867 -8.16176 0)
(204.119 -8.2438 0)
(203.43 -8.2779 0)
(202.782 -8.2769 0)
(202.162 -8.25262 0)
(201.557 -8.21353 0)
(200.961 -8.1641 0)
(200.368 -8.1078 0)
(199.775 -8.04801 0)
(199.18 -7.98678 0)
(198.583 -7.925 0)
(197.985 -7.8633 0)
(197.386 -7.80254 0)
(196.785 -7.74368 0)
(196.184 -7.68766 0)
(195.582 -7.63547 0)
(194.979 -7.58815 0)
(194.376 -7.54679 0)
(193.771 -7.51256 0)
(193.164 -7.48675 0)
(192.554 -7.47057 0)
(191.941 -7.46574 0)
(191.32 -7.47379 0)
(190.693 -7.49628 0)
(190.057 -7.53486 0)
(189.413 -7.59075 0)
(188.761 -7.6657 0)
(188.099 -7.7608 0)
(187.427 -7.87768 0)
(186.743 -8.0179 0)
(186.048 -8.18275 0)
(185.342 -8.37374 0)
(184.624 -8.59209 0)
(183.896 -8.83893 0)
(183.157 -9.11552 0)
(182.408 -9.4229 0)
(181.65 -9.76237 0)