/*--------------------------------*- C++ -*----------------------------------*\
| =========                 |                                                 |
| \\      /  F ield         | OpenFOAM: The Open Source CFD Toolbox           |
|  \\    /   O peration     | Version:  2406                                  |
|   \\  /    A nd           | Website:  www.openfoam.com                      |
|    \\/     M anipulation  |                                                 |
\*---------------------------------------------------------------------------*/
FoamFile
{
    version     2.0;
    format      ascii;
    arch        "LSB;label=32;scalar=64";
    class       volScalarField;
    location    "0.016";
    object      p;
}
// * * * * * * * * * * * * * * * * * * * * * * * * * * * * * * * * * * * * * //

dimensions      [1 -1 -2 0 0 0 0];

internalField   nonuniform List<scalar> 
78650
(
2790
2790
2790
2790
2790
2790
2790
2790.08
2791.95
2804.9
2835.48
2864.53
2874.8
2877.84
2873.18
2859.7
2844.66
2831.93
2821.02
2811.01
2801.62
2792.87
2784.49
2776.01
2767.35
2759.65
2755.17
2753.96
2754.88
2757.37
2758.14
2757.33
2755.03
2751.98
2749.29
2746.98
2744.89
2743.04
2741.31
2739.62
2737.9
2736.18
2734.5
2732.87
2731.25
2729.6
2727.91
2726.22
2724.53
2722.75
2720.79
2718.61
2716.22
2713.63
2710.8
2707.66
2704.15
2700.18
2695.7
2690.64
2684.97
2678.62
2671.56
2663.73
2655.09
2645.54
2634.99
2623.39
2610.62
2596.58
2581.21
2564.42
2546.13
2526.32
2504.94
2481.9
2457.24
2430.86
2402.66
2372.61
2340.65
2306.89
2271.38
2234.43
2195.84
2155.89
2114.42
2071.83
2028.27
1984.09
1940.41
1895.64
1852.46
1809.84
1768.75
1728.81
1689.12
1650.03
1611.43
1573.8
1540.38
1510.17
1481.21
1453.39
1425.83
1398.87
1373.78
1351.75
1332.57
1315.26
1299.63
1283.74
1268.92
1254.74
1241.16
1228.25
1216.16
1205.16
1195.2
1186.91
1170.34
2790
2790
2790
2790
2790
2790
2790
2790.04
2791.15
2800.86
2829.12
2861.08
2875.16
2879.74
2876.53
2864.33
2849.04
2836.11
2825.29
2815.47
2806.24
2797.58
2789.19
2780.69
2771.98
2764.04
2759.1
2757.65
2758.53
2761.53
2762.92
2762.56
2760.88
2758.15
2755.59
2753.43
2751.52
2749.83
2748.29
2746.8
2745.32
2743.87
2742.48
2741.16
2739.88
2738.59
2737.28
2735.97
2734.69
2733.38
2731.94
2730.3
2728.47
2726.48
2724.28
2721.83
2719.05
2715.87
2712.24
2708.09
2703.37
2698.05
2692.09
2685.42
2678.02
2669.8
2660.67
2650.57
2639.4
2627.05
2613.48
2598.6
2582.31
2564.55
2545.19
2524.14
2501.44
2476.97
2450.67
2422.56
2392.67
2361.15
2328.04
2293.48
2257.21
2219.65
2180.68
2140.36
2099.15
2056.62
2014.18
1970.93
1927.27
1883.45
1838.87
1796.48
1754.42
1714.54
1675.68
1636.74
1599.8
1565.72
1533.39
1503.79
1474.69
1447.14
1420.95
1394.96
1370.56
1347.61
1326.59
1307.54
1290.42
1274.57
1259.96
1246.19
1233.22
1220.86
1209.78
1199.96
1181.69
2790
2790
2790
2790
2790
2790
2790
2790.02
2790.64
2797.52
2822.46
2856.48
2875.14
2881.47
2879.19
2868.87
2853.62
2840.5
2829.71
2820.05
2810.98
2802.34
2793.89
2785.35
2776.61
2768.51
2763.16
2761.48
2762.29
2765.73
2767.87
2767.94
2766.8
2764.39
2761.98
2759.99
2758.25
2756.73
2755.36
2754.07
2752.83
2751.65
2750.57
2749.57
2748.63
2747.69
2746.75
2745.83
2744.97
2744.12
2743.19
2742.09
2740.82
2739.41
2737.84
2736.05
2733.99
2731.58
2728.77
2725.49
2721.71
2717.37
2712.44
2706.88
2700.65
2693.68
2685.88
2677.2
2667.53
2656.78
2644.88
2631.74
2617.24
2601.35
2583.97
2565.05
2544.58
2522.47
2498.64
2473.14
2445.93
2417.03
2386.41
2354
2319.66
2283.76
2246.06
2207.08
2166.7
2125.13
2082.24
2038.92
1994.53
1951.1
1906.19
1862.06
1819.44
1776.63
1736.68
1696.37
1656.62
1619.23
1582.27
1548.59
1517.31
1487.4
1458.97
1430.96
1404.34
1379.57
1357.42
1336.7
1317.49
1299.1
1281.88
1265.82
1250.56
1236.25
1223.29
1211.85
1189.19
2790
2790
2790
2790
2790
2790
2790
2790.01
2790.33
2794.86
2815.68
2850.58
2874.38
2882.91
2881.4
2873.41
2858.63
2845.29
2834.46
2824.91
2815.91
2807.22
2798.65
2790.06
2781.38
2773.18
2767.44
2765.5
2766.17
2769.9
2772.91
2773.5
2772.76
2770.71
2768.5
2766.68
2765.09
2763.71
2762.49
2761.4
2760.42
2759.51
2758.72
2758.03
2757.42
2756.83
2756.25
2755.72
2755.26
2754.86
2754.41
2753.84
2753.12
2752.27
2751.3
2750.15
2748.77
2747.1
2745.08
2742.65
2739.77
2736.39
2732.48
2728
2722.93
2717.19
2710.72
2703.46
2695.29
2686.14
2675.93
2664.57
2651.98
2638.11
2622.85
2606.11
2587.83
2567.89
2546.25
2522.93
2497.85
2470.96
2442.27
2411.72
2379.28
2345.24
2309.4
2272.32
2233.63
2193.59
2152.31
2110.1
2067.08
2023.27
1979.72
1934.87
1891.87
1848.02
1804.72
1763.32
1721.97
1683.5
1645.84
1609.3
1575.46
1542.83
1512.21
1482.58
1454.1
1427.31
1402.67
1379.14
1357.03
1335.5
1315.68
1297.88
1281.91
1267.03
1253.52
1241.31
1218.56
2790
2790
2790
2790
2790
2790
2790
2790
2790.15
2792.89
2809.21
2843.41
2872.21
2883.84
2883.36
2877.86
2863.93
2850.34
2839.46
2829.99
2820.96
2812.11
2803.41
2794.82
2786.24
2778.04
2771.98
2769.75
2770.24
2774.12
2778.08
2779.25
2778.86
2777.22
2775.21
2773.53
2772.07
2770.82
2769.77
2768.9
2768.17
2767.54
2767.04
2766.66
2766.38
2766.15
2765.94
2765.79
2765.74
2765.78
2765.81
2765.76
2765.57
2765.28
2764.89
2764.37
2763.66
2762.7
2761.46
2759.85
2757.83
2755.39
2752.46
2749.02
2745.04
2740.47
2735.26
2729.32
2722.56
2714.91
2706.3
2696.63
2685.82
2673.81
2660.47
2645.71
2629.51
2611.77
2592.5
2571.68
2549.17
2524.9
2498.85
2470.95
2441.19
2409.67
2376.27
2341.37
2304.68
2266.65
2226.93
2185.84
2144
2100.62
2057.4
2012.43
1967.15
1922.19
1876.97
1833.93
1790.07
1747.07
1706.45
1666.36
1628.72
1591.76
1557.64
1525.69
1494.82
1465.51
1437.63
1411.37
1387.14
1363.32
1340.85
1320.18
1301.96
1285.12
1269.85
1256.38
1229.37
2790
2790
2790
2790
2790
2790
2790
2790
2790.06
2791.56
2803.39
2835.08
2868.23
2884.2
2885.37
2882.05
2869.44
2855.85
2844.91
2835.32
2826.09
2817.05
2808.27
2799.76
2791.35
2783.23
2776.89
2774.3
2774.56
2778.38
2783.29
2785.16
2785.07
2783.85
2782.03
2780.48
2779.14
2778.04
2777.18
2776.53
2776.05
2775.7
2775.49
2775.41
2775.46
2775.58
2775.75
2775.98
2776.34
2776.8
2777.29
2777.72
2778.07
2778.32
2778.49
2778.56
2778.49
2778.22
2777.72
2776.92
2775.74
2774.2
2772.22
2769.79
2766.88
2763.47
2759.48
2754.86
2749.52
2743.38
2736.37
2728.39
2719.37
2709.25
2697.89
2685.25
2671.28
2655.87
2638.99
2620.53
2600.31
2578.3
2554.49
2528.84
2501.38
2472.12
2441.01
2408.26
2373.67
2337.58
2299.56
2260.24
2219.39
2177.68
2134.79
2090.81
2045.64
2000.7
1955.54
1911.1
1867.77
1824.02
1781.93
1739.28
1699.31
1659.72
1622.12
1586.94
1552.99
1519.98
1488.14
1457.85
1430.67
1405.04
1381.04
1357.81
1335.88
1315.51
1297.56
1281.68
1249.18
2790
2790
2790
2790
2790
2790
2790
2790
2790.02
2790.76
2798.58
2826.08
2862.44
2883.68
2887.43
2885.56
2875.22
2861.87
2850.62
2840.64
2831.14
2822
2813.24
2804.85
2796.66
2788.69
2782.16
2779.12
2779.09
2782.64
2788.44
2791.23
2791.48
2790.6
2788.97
2787.55
2786.36
2785.42
2784.75
2784.33
2784.11
2784.04
2784.11
2784.35
2784.73
2785.21
2785.76
2786.38
2787.13
2788.02
2788.97
2789.89
2790.74
2791.52
2792.24
2792.9
2793.45
2793.85
2794.05
2794.04
2793.67
2793.01
2791.95
2790.49
2788.61
2786.28
2783.45
2780.07
2776.05
2771.31
2765.8
2759.4
2752.06
2743.72
2734.26
2723.62
2711.73
2698.45
2683.76
2667.55
2649.74
2630.31
2609.26
2586.51
2562.06
2535.81
2507.65
2477.67
2445.76
2412.12
2376.46
2339.33
2300.3
2260.07
2218.61
2175.92
2132.07
2087.13
2041.91
1996.09
1951.26
1904.87
1860.83
1816.66
1773.79
1733.61
1694.04
1656.51
1620.54
1585.72
1552.19
1519.2
1488.51
1459.89
1433.73
1408.76
1384.69
1362.07
1342.02
1324.82
1294.16
2790
2790
2790
2790
2790
2790
2790
2790
2790.01
2790.32
2794.97
2817
2854.55
2881.89
2888.77
2888.73
2881.26
2868.33
2856.39
2845.89
2836.23
2827.13
2818.47
2810.23
2802.27
2794.49
2787.83
2784.28
2783.89
2786.97
2793.46
2797.32
2797.96
2797.34
2795.93
2794.68
2793.68
2792.92
2792.44
2792.24
2792.28
2792.51
2792.88
2793.41
2794.12
2794.96
2795.9
2796.91
2798.04
2799.34
2800.73
2802.13
2803.46
2804.74
2806
2807.22
2808.37
2809.41
2810.29
2810.97
2811.42
2811.58
2811.44
2810.92
2810.05
2808.77
2807.08
2804.92
2802.2
2798.86
2794.83
2790.02
2784.38
2777.83
2770.25
2761.6
2751.76
2740.64
2728.24
2714.46
2699.22
2682.46
2664.08
2643.95
2622.05
2598.23
2572.41
2544.7
2515.07
2483.69
2450.32
2415.21
2378.04
2339.57
2299.51
2258.3
2215.76
2171.73
2127.27
2081.42
2036.41
1989.25
1942.57
1897.22
1851.71
1808.17
1763.29
1720.88
1680.28
1641.85
1605.82
1569.99
1535.5
1502.67
1472.58
1444.58
1417.81
1391.96
1367.54
1346.48
1304.65
2790
2790
2790
2790
2790
2790
2790
2790
2790
2790.12
2792.55
2808.6
2844.88
2878.02
2889.33
2891.81
2887
2874.81
2862.04
2851.12
2841.46
2832.48
2823.92
2815.81
2808.08
2800.54
2793.82
2789.69
2788.88
2791.31
2798.17
2803.29
2804.48
2804.1
2802.96
2801.92
2801.13
2800.56
2800.27
2800.27
2800.62
2801.12
2801.8
2802.66
2803.71
2804.9
2806.21
2807.61
2809.13
2810.82
2812.64
2814.51
2816.32
2818.1
2819.86
2821.62
2823.35
2825.02
2826.57
2827.97
2829.17
2830.12
2830.8
2831.19
2831.29
2831.03
2830.42
2829.41
2827.89
2825.87
2823.22
2819.88
2815.8
2810.9
2805.09
2798.32
2790.49
2781.5
2771.34
2759.89
2747.06
2732.76
2716.87
2699.29
2680.03
2658.97
2636.08
2611.38
2584.85
2556.49
2526.14
2493.92
2459.62
2423.71
2385.83
2346.66
2305.86
2263.76
2220.09
2175.37
2129.38
2083.57
2037.1
1991.55
1945.05
1900.76
1855.32
1811.12
1768.85
1727.78
1689.42
1651.19
1613.81
1576.55
1541.55
1509.61
1480.28
1452.45
1425.97
1401.66
1352.14
2790
2790
2790
2790
2790
2790
2790
2790
2790
2790.04
2791.15
2801.6
2833.84
2871.8
2889.33
2894.78
2891.81
2880.99
2867.79
2856.63
2847.01
2838.1
2829.62
2821.66
2814.17
2806.88
2800.1
2795.36
2794.01
2795.66
2802.47
2808.97
2810.99
2810.87
2810.05
2809.21
2808.63
2808.27
2808.18
2808.45
2809.04
2809.86
2810.85
2812.03
2813.39
2814.93
2816.61
2818.39
2820.28
2822.36
2824.59
2826.9
2829.18
2831.43
2833.67
2835.94
2838.22
2840.48
2842.66
2844.73
2846.65
2848.38
2849.89
2851.14
2852.13
2852.85
2853.26
2853.38
2853.06
2852.33
2851.07
2849.17
2846.65
2843.4
2839.35
2834.45
2828.59
2821.67
2813.65
2804.41
2793.91
2782.07
2768.78
2753.96
2737.6
2719.56
2699.77
2678.21
2654.76
2629.42
2602.12
2572.89
2541.52
2508.28
2472.94
2436.1
2397.34
2357.05
2314.86
2271.17
2226.43
2180.6
2134.11
2087.09
2039.13
1990.96
1944.92
1897.6
1851.91
1806.7
1764.79
1724.48
1685.59
1646.72
1608.24
1572.35
1539.7
1510.24
1483.91
1460.69
1415.23
2790
2790
2790
2790
2790
2790
2790
2790
2790
2790.01
2790.45
2796.45
2822.44
2863.05
2888.4
2897.02
2895.38
2887.08
2873.97
2862.51
2852.74
2843.86
2835.51
2827.73
2820.44
2813.33
2806.46
2801.12
2799.12
2800.02
2806.26
2814.15
2817.46
2817.71
2817.19
2816.52
2816.18
2816.09
2816.27
2816.75
2817.61
2818.72
2820.02
2821.51
2823.2
2825.09
2827.13
2829.28
2831.55
2833.99
2836.61
2839.34
2842.07
2844.78
2847.5
2850.26
2853.07
2855.88
2858.67
2861.39
2864
2866.47
2868.75
2870.84
2872.71
2874.36
2875.75
2876.87
2877.67
2878.09
2878.15
2877.59
2876.55
2874.84
2872.41
2869.24
2865.2
2860.25
2854.31
2847.29
2839.17
2829.83
2819.17
2807.07
2793.49
2778.27
2761.36
2742.68
2722.12
2699.69
2675.36
2649.07
2620.71
2590.4
2557.91
2523.58
2487.17
2449.21
2409.41
2368.21
2325.46
2281.43
2236.16
2189.4
2142.77
2094.72
2047.96
1999.5
1952.08
1902.89
1855.73
1810.66
1767.78
1726.28
1684.51
1644.21
1604.79
1568.13
1535.07
1505.32
1445.95
2790
2790
2790
2790
2790
2790
2790
2790
2790
2790
2790.15
2793.15
2811.93
2851.9
2885.29
2898.12
2898.17
2893
2880.57
2868.57
2858.56
2849.79
2841.68
2834.05
2826.81
2819.71
2812.72
2806.85
2804.14
2804.37
2809.7
2818.88
2823.87
2824.71
2824.39
2823.89
2823.77
2824.04
2824.46
2825.18
2826.28
2827.66
2829.25
2831.05
2833.06
2835.28
2837.67
2840.19
2842.81
2845.59
2848.57
2851.7
2854.86
2858.01
2861.17
2864.39
2867.69
2871.03
2874.39
2877.72
2880.98
2884.15
2887.18
2890.06
2892.76
2895.28
2897.61
2899.75
2901.63
2903.19
2904.4
2905.2
2905.55
2905.38
2904.56
2903.11
2900.88
2897.86
2893.94
2889.04
2883.14
2876.11
2867.86
2858.31
2847.38
2834.95
2821
2805.39
2788.02
2768.9
2747.95
2725.08
2700.2
2673.26
2644.05
2612.88
2579.68
2544.8
2507.83
2469.02
2428.04
2385.49
2341.3
2295.83
2249.02
2201.7
2153.59
2105.96
2058.1
2009.76
1961.86
1914.63
1869.5
1827.07
1784.53
1743.33
1702.24
1662.85
1627.55
1596.92
1542.15
2790
2790
2790
2790
2790
2790
2790
2790
2790
2790
2790.04
2791.34
2803.37
2839.2
2878.95
2897.98
2901.03
2898.26
2887
2874.64
2864.54
2855.97
2848
2840.29
2832.89
2825.73
2818.71
2812.53
2809.13
2808.77
2813.04
2823.12
2830.05
2831.8
2831.68
2831.41
2831.49
2832.05
2832.74
2833.69
2835.01
2836.66
2838.54
2840.64
2842.96
2845.5
2848.23
2851.09
2854.06
2857.17
2860.49
2863.98
2867.56
2871.13
2874.72
2878.38
2882.15
2885.99
2889.89
2893.8
2897.68
2901.51
2905.25
2908.88
2912.37
2915.73
2918.94
2922
2924.88
2927.52
2929.89
2931.91
2933.51
2934.67
2935.33
2935.49
2934.94
2933.75
2931.75
2928.83
2925.08
2920.32
2914.52
2907.56
2899.36
2889.79
2878.82
2866.29
2852.1
2836.21
2818.54
2798.97
2777.43
2753.86
2728.17
2700.54
2670.79
2639.06
2605.04
2569.06
2530.91
2491.07
2449.29
2405.84
2360.61
2313.93
2266.4
2218.17
2169.35
2119.84
2069.02
2017.47
1965.99
1917.76
1869.71
1822.48
1776.51
1731.17
1688.8
1652.24
1581.52
2790
2790
2790
2790
2790
2790
2790
2790
2790
2790
2790.01
2790.49
2797.26
2826.3
2869.68
2896.68
2903.58
2902.08
2893.13
2881.03
2870.88
2862.27
2854.07
2846.11
2838.6
2831.5
2824.57
2818.23
2814.22
2813.33
2816.49
2826.92
2835.85
2838.91
2839.16
2839.07
2839.31
2840.08
2841.04
2842.22
2843.78
2845.68
2847.84
2850.23
2852.83
2855.67
2858.7
2861.88
2865.17
2868.6
2872.22
2876.06
2880.01
2883.98
2887.98
2892.05
2896.25
2900.56
2904.96
2909.41
2913.88
2918.33
2922.73
2927.06
2931.31
2935.45
2939.49
2943.44
2947.26
2950.92
2954.36
2957.55
2960.42
2962.92
2964.99
2966.59
2967.66
2968.16
2968.09
2967.09
2965.43
2962.82
2959.3
2954.74
2949.05
2942.14
2933.95
2924.33
2913.21
2900.53
2886.16
2870.02
2852.06
2832.21
2810.37
2786.53
2760.46
2732.28
2701.85
2669.39
2634.65
2597.98
2559.21
2518.66
2476.14
2432.01
2386.36
2339.68
2292.28
2243.95
2194.65
2145.36
2093.9
2043.22
1995.31
1947.65
1902.45
1855.25
1809.99
1767.54
1687.57
2790
2790
2790
2790
2790
2790
2790
2790
2790
2790
2790
2790.16
2793.48
2814.57
2858.07
2893.44
2904.52
2905.04
2899.16
2887.81
2877.23
2868.07
2859.6
2851.58
2844.15
2837.18
2830.37
2823.93
2819.41
2818
2820.15
2830.36
2841.21
2845.88
2846.75
2846.86
2847.21
2848.13
2849.33
2850.72
2852.5
2854.65
2857.08
2859.73
2862.61
2865.71
2869.02
2872.5
2876.1
2879.82
2883.74
2887.89
2892.2
2896.56
2900.95
2905.42
2910.02
2914.78
2919.65
2924.61
2929.63
2934.67
2939.7
2944.7
2949.65
2954.53
2959.35
2964.12
2968.81
2973.41
2977.85
2982.1
2986.11
2989.83
2993.21
2996.22
2998.78
3000.82
3002.31
3003.2
3003.47
3002.93
3001.61
2999.4
2996.13
2991.85
2986.4
2979.69
2971.65
2962.15
2951.09
2938.39
2923.99
2907.75
2889.54
2869.28
2846.79
2822.21
2795.43
2766.56
2735.38
2702.13
2666.6
2629.06
2589.31
2547.54
2503.56
2457.86
2410.68
2362.62
2313.63
2263.5
2212.54
2159.73
2107.91
2057.16
2009.98
1960.15
1914.71
1873.51
1795.09
2790
2790
2790
2790
2790
2790
2790
2790
2790
2790
2790
2790.05
2791.48
2805.17
2845.03
2887.45
2904.09
2908.3
2904.97
2894.3
2882.89
2873.33
2864.9
2857.04
2849.73
2842.8
2836.02
2829.52
2824.61
2822.74
2824.07
2833.61
2846.2
2852.72
2854.41
2854.75
2855.18
2856.19
2857.56
2859.15
2861.13
2863.52
2866.2
2869.09
2872.21
2875.54
2879.1
2882.85
2886.72
2890.72
2894.91
2899.35
2903.99
2908.71
2913.48
2918.32
2923.31
2928.48
2933.79
2939.23
2944.76
2950.34
2955.95
2961.57
2967.18
2972.75
2978.3
2983.82
2989.33
2994.79
3000.17
3005.42
3010.51
3015.37
3019.98
3024.28
3028.24
3031.81
3034.92
3037.49
3039.48
3040.85
3041.53
3041.6
3040.6
3038.81
3035.95
3031.94
3026.8
3020.32
3012.44
3003.08
2992.15
2979.48
2965
2948.61
2930.2
2909.83
2887.35
2862.77
2835.87
2806.77
2775.24
2741.55
2705.56
2667.4
2626.85
2584.27
2539.75
2494.1
2447.29
2399.43
2349.68
2297.99
2244.52
2190.82
2139.24
2085.14
2032.93
1983.74
1893.82
2790
2790
2790
2790
2790
2790
2790
2790
2790
2790
2790
2790.01
2790.57
2798.56
2831.87
2878.82
2903.28
2911.35
2909.13
2899.97
2888.21
2878.51
2870.24
2862.52
2855.15
2848.12
2841.36
2834.9
2829.76
2827.51
2828.28
2836.82
2850.83
2859.32
2861.96
2862.53
2863
2864.04
2865.55
2867.32
2869.49
2872.1
2875.01
2878.14
2881.47
2885.03
2888.81
2892.79
2896.94
2901.21
2905.67
2910.38
2915.33
2920.4
2925.53
2930.74
2936.11
2941.66
2947.39
2953.28
2959.29
2965.39
2971.55
2977.74
2983.96
2990.18
2996.4
3002.63
3008.88
3015.14
3021.38
3027.54
3033.6
3039.51
3045.23
3050.72
3055.95
3060.86
3065.41
3069.55
3073.22
3076.38
3078.92
3080.85
3082.09
3082.59
3082.25
3080.83
3078.47
3074.86
3070.07
3063.93
3056.36
3047.24
3036.5
3023.99
3009.63
2993.37
2975.02
2954.55
2931.77
2906.75
2879.28
2849.59
2817.5
2783.15
2746.43
2707.48
2666.25
2623.2
2578.28
2532.2
2484.4
2435.2
2384.19
2331.82
2279.21
2227.91
2175.41
2129.94
2048.48
2790
2790
2790
2790
2790
2790
2790
2790
2790
2790
2790
2790
2790.2
2794.46
2820.03
2868.28
2901.71
2913.15
2912.01
2904.99
2893.5
2883.82
2875.54
2867.66
2860.08
2853
2846.37
2840.11
2834.92
2832.36
2832.71
2840.07
2855.14
2865.59
2869.22
2870.03
2870.5
2871.55
2873.2
2875.13
2877.48
2880.31
2883.46
2886.81
2890.35
2894.11
2898.1
2902.31
2906.71
2911.24
2915.96
2920.93
2926.17
2931.57
2937.05
2942.61
2948.33
2954.25
2960.37
2966.67
2973.12
2979.69
2986.35
2993.08
2999.86
3006.66
3013.5
3020.38
3027.31
3034.29
3041.3
3048.3
3055.24
3062.11
3068.86
3075.44
3081.84
3088.01
3093.9
3099.47
3104.66
3109.44
3113.76
3117.56
3120.77
3123.3
3125.13
3126.15
3126.42
3125.54
3123.72
3120.67
3116.29
3110.62
3103.45
3094.68
3084.19
3071.86
3057.53
3041.15
3022.58
3001.84
2978.71
2953.35
2925.54
2895.45
2862.95
2828.08
2790.72
2750.96
2708.88
2665.03
2619.25
2572.05
2522.49
2471.11
2417.53
2362.87
2307.01
2254.01
2167.66
2790
2790
2790
2790
2790
2790
2790
2790
2790
2790
2790
2790
2790.07
2792.19
2810.51
2856.89
2898.31
2913.87
2914.27
2909.69
2898.89
2888.93
2880.26
2872.14
2864.52
2857.56
2851.18
2845.21
2840.03
2837.11
2837.08
2843.26
2859
2871.3
2875.98
2877.04
2877.53
2878.62
2880.4
2882.51
2885.03
2888.05
2891.42
2894.99
2898.74
2902.7
2906.89
2911.32
2915.96
2920.75
2925.71
2930.94
2936.45
2942.17
2947.98
2953.88
2959.94
2966.21
2972.7
2979.39
2986.25
2993.26
3000.38
3007.6
3014.89
3022.23
3029.64
3037.11
3044.66
3052.3
3060.01
3067.76
3075.51
3083.24
3090.91
3098.48
3105.92
3113.21
3120.3
3127.15
3133.72
3139.96
3145.84
3151.32
3156.34
3160.83
3164.74
3167.96
3170.45
3172.13
3172.95
3172.95
3171.48
3169.1
3165.3
3160.07
3153.34
3144.93
3134.75
3122.75
3108.79
3092.8
3074.58
3054.17
3031.3
3006.12
2978.41
2948.23
2915.47
2880.16
2842.49
2802.62
2760.75
2717.27
2671.62
2624.69
2575.19
2525.29
2472.3
2420.5
2337.86
2790
2790
2790
2790
2790
2790
2790
2790
2790
2790
2790
2790
2790.02
2791.04
2803.54
2845.82
2893.12
2913.67
2916.75
2914
2903.88
2893.31
2884.27
2876.13
2868.67
2861.97
2855.9
2850.12
2844.82
2841.49
2841.05
2846.27
2862.46
2876.5
2882.24
2883.62
2884.17
2885.3
2887.2
2889.46
2892.11
2895.3
2898.87
2902.64
2906.6
2910.76
2915.16
2919.8
2924.67
2929.71
2934.93
2940.4
2946.17
2952.18
2958.32
2964.54
2970.92
2977.52
2984.35
2991.4
2998.64
3006.04
3013.59
3021.24
3029
3036.83
3044.74
3052.74
3060.85
3069.08
3077.42
3085.84
3094.31
3102.81
3111.29
3119.74
3128.13
3136.42
3144.58
3152.59
3160.39
3167.96
3175.25
3182.24
3188.87
3195.1
3200.86
3206.1
3210.76
3214.75
3217.95
3220.39
3221.9
3222.5
3222
3220.16
3217.11
3212.5
3206.38
3198.57
3188.94
3177.35
3163.64
3147.73
3129.39
3108.72
3085.44
3059.71
3031.35
3000.45
2967.03
2930.95
2892.61
2851.88
2808.97
2763.99
2716.28
2667.25
2614.31
2560.4
2482.8
2790
2790
2790
2790
2790
2790
2790
2790
2790
2790
2790
2790
2790.01
2790.5
2798.85
2835.94
2887.06
2913.13
2919.32
2917.4
2908.03
2896.98
2887.79
2879.86
2872.68
2866.26
2860.35
2854.5
2848.97
2845.28
2844.51
2849.14
2865.78
2881.47
2888.22
2889.94
2890.54
2891.69
2893.66
2896.01
2898.74
2902.05
2905.79
2909.75
2913.9
2918.27
2922.88
2927.75
2932.85
2938.14
2943.61
2949.32
2955.34
2961.63
2968.07
2974.6
2981.28
2988.18
2995.33
3002.71
3010.29
3018.05
3025.98
3034.03
3042.2
3050.47
3058.85
3067.33
3075.93
3084.69
3093.58
3102.6
3111.71
3120.88
3130.09
3139.32
3148.53
3157.71
3166.82
3175.84
3184.73
3193.46
3202
3210.31
3218.37
3226.14
3233.55
3240.56
3247.11
3253.15
3258.61
3263.41
3267.47
3270.68
3273.01
3274.33
3274.7
3273.58
3271.27
3267.39
3261.81
3254.55
3245.36
3234.17
3220.76
3205.16
3187.09
3166.69
3143.65
3118.1
3089.79
3058.77
3025.24
2988.95
2950.53
2909.42
2866.24
2820.62
2772.42
2719.35
2649.08
2790
2790
2790
2790
2790
2790
2790
2790
2790
2790
2790
2790
2790
2790.26
2795.89
2827.85
2880.99
2912.55
2921.44
2919.93
2911.39
2900.11
2891.02
2883.41
2876.5
2870.22
2864.15
2858.1
2852.39
2848.5
2847.59
2852.08
2869.37
2886.58
2894.14
2896.14
2896.75
2897.85
2899.84
2902.21
2904.95
2908.33
2912.2
2916.33
2920.67
2925.26
2930.09
2935.19
2940.54
2946.08
2951.79
2957.74
2964
2970.55
2977.26
2984.08
2991.03
2998.22
3005.65
3013.32
3021.21
3029.3
3037.55
3045.96
3054.5
3063.16
3071.94
3080.84
3089.89
3099.11
3108.49
3118.03
3127.69
3137.46
3147.3
3157.2
3167.14
3177.08
3187.02
3196.92
3206.76
3216.5
3226.12
3235.6
3244.9
3254
3262.86
3271.42
3279.65
3287.48
3294.88
3301.77
3308.1
3313.78
3318.74
3322.85
3326.09
3328.28
3329.4
3329.5
3327.76
3324.88
3320.19
3313.71
3305.34
3294.88
3282.13
3267.07
3249.36
3229.14
3206
3180.24
3151.62
3120.19
3086.22
3049.1
3009.48
2966.63
2921.19
2870.3
2803.39
2790
2790
2790
2790
2790
2790
2790
2790
2790
2790
2790
2790
2790
2790.15
2794.14
2821.8
2875.62
2912.04
2923.07
2921.81
2914.07
2902.86
2894.03
2886.7
2879.93
2873.49
2867.15
2860.94
2855.18
2851.3
2850.45
2855.3
2873.54
2892.08
2900.15
2902.26
2902.81
2903.79
2905.75
2908.08
2910.79
2914.2
2918.17
2922.45
2926.99
2931.79
2936.86
2942.2
2947.78
2953.57
2959.52
2965.69
2972.18
2978.96
2985.93
2993
3000.21
3007.64
3015.33
3023.26
3031.42
3039.79
3048.34
3057.06
3065.92
3074.92
3084.06
3093.33
3102.76
3112.38
3122.19
3132.18
3142.32
3152.6
3162.99
3173.48
3184.04
3194.65
3205.29
3215.95
3226.6
3237.21
3247.76
3258.23
3268.6
3278.85
3288.94
3298.83
3308.49
3317.87
3326.94
3335.63
3343.91
3351.7
3358.94
3365.57
3371.48
3376.61
3380.77
3384.01
3386.09
3387.04
3386.69
3384.47
3380.81
3375.1
3367.32
3357.33
3344.83
3329.88
3312.03
3291.58
3268
3241.69
3212.43
3180.01
3144.84
3106.15
3064.83
3017.85
2956.6
2790
2790
2790
2790
2790
2790
2790
2790
2790
2790
2790
2790
2790
2790.11
2793.17
2817.72
2871.51
2911.78
2924.31
2923.27
2916.23
2905.27
2896.71
2889.53
2882.69
2875.96
2869.44
2863.18
2857.46
2853.8
2853.21
2858.91
2878.44
2898
2906.21
2908.22
2908.63
2909.46
2911.38
2913.65
2916.34
2919.78
2923.85
2928.28
2933
2938.01
2943.3
2948.86
2954.67
2960.68
2966.86
2973.24
2979.93
2986.92
2994.11
3001.41
3008.83
3016.49
3024.4
3032.56
3040.96
3049.57
3058.38
3067.36
3076.51
3085.81
3095.25
3104.85
3114.62
3124.58
3134.76
3145.13
3155.69
3166.4
3177.26
3188.24
3199.33
3210.5
3221.75
3233.04
3244.38
3255.72
3267.05
3278.36
3289.63
3300.84
3311.96
3322.98
3333.84
3344.53
3355.01
3365.23
3375.16
3384.75
3393.95
3402.68
3410.91
3418.54
3425.5
3431.69
3437.01
3441.3
3444.54
3446.51
3447.27
3446.32
3443.65
3439.2
3432.55
3423.73
3412.29
3398.32
3381.12
3361.19
3337.72
3310.92
3280.26
3245.27
3206.86
3162.28
3103.86
2790
2790
2790
2790
2790
2790
2790
2790
2790
2790
2790
2790
2790
2790.08
2792.77
2815.54
2869.17
2911.94
2925.38
2924.58
2917.99
2907.28
2898.92
2891.75
2884.71
2877.77
2871.17
2864.92
2859.33
2856.03
2855.85
2862.92
2884.11
2904.23
2912.2
2913.91
2914.12
2914.82
2916.75
2919
2921.71
2925.23
2929.41
2933.97
2938.85
2944.05
2949.52
2955.28
2961.28
2967.48
2973.85
2980.41
2987.27
2994.45
3001.82
3009.31
3016.93
3024.77
3032.88
3041.25
3049.85
3058.67
3067.7
3076.92
3086.31
3095.86
3105.57
3115.44
3125.5
3135.77
3146.25
3156.96
3167.86
3178.95
3190.2
3201.6
3213.13
3224.78
3236.53
3248.36
3260.27
3272.22
3284.21
3296.22
3308.23
3320.24
3332.22
3344.16
3356.02
3367.79
3379.43
3390.92
3402.22
3413.29
3424.1
3434.6
3444.74
3454.45
3463.69
3472.38
3480.44
3487.77
3494.3
3499.85
3504.38
3507.7
3509.7
3510.33
3508.93
3505.66
3500.07
3492
3481.04
3467.4
3450.21
3429.99
3405.28
3376.11
3342.13
3301.59
3247.82
2790
2790
2790
2790
2790
2790
2790
2790
2790
2790
2790
2790
2790
2790.08
2792.67
2815.08
2868.77
2912.56
2926.46
2925.81
2919.26
2908.73
2900.5
2893.28
2886.13
2879.12
2872.5
2866.26
2860.85
2857.97
2858.3
2867.39
2890.46
2910.52
2917.94
2919.21
2919.21
2919.85
2921.87
2924.18
2926.99
2930.63
2934.95
2939.65
2944.67
2950
2955.62
2961.52
2967.67
2974.02
2980.53
2987.24
2994.25
3001.57
3009.11
3016.76
3024.54
3032.56
3040.84
3049.37
3058.15
3067.16
3076.38
3085.8
3095.4
3105.17
3115.11
3125.22
3135.52
3146.04
3156.79
3167.78
3178.98
3190.38
3201.97
3213.72
3225.62
3237.67
3249.83
3262.11
3274.49
3286.95
3299.48
3312.06
3324.69
3337.35
3350.04
3362.73
3375.4
3388.05
3400.64
3413.14
3425.55
3437.83
3449.95
3461.88
3473.57
3485
3496.1
3506.83
3517.13
3526.93
3536.16
3544.74
3552.55
3559.49
3565.36
3570.15
3573.6
3575.62
3576.18
3574.37
3570.63
3564.28
3554.77
3542.45
3525.29
3503.64
3474.7
3439.59
3390.49
2790
2790
2790
2790
2790
2790
2790
2790
2790
2790
2790
2790
2790
2790.08
2792.76
2815.66
2870.06
2913.95
2927.68
2926.9
2919.96
2909.51
2901.37
2894.18
2887.06
2880.08
2873.47
2867.25
2862.08
2859.57
2860.57
2872.44
2897.42
2916.65
2923.22
2924.04
2923.89
2924.55
2926.74
2929.17
2932.15
2935.96
2940.45
2945.28
2950.42
2955.87
2961.6
2967.59
2973.84
2980.29
2986.91
2993.73
3000.86
3008.31
3015.98
3023.76
3031.69
3039.85
3048.29
3056.98
3065.91
3075.08
3084.47
3094.06
3103.84
3113.81
3123.95
3134.26
3144.78
3155.52
3166.51
3177.74
3189.19
3200.86
3212.73
3224.78
3237
3249.38
3261.9
3274.55
3287.32
3300.21
3313.18
3326.23
3339.36
3352.56
3365.81
3379.12
3392.45
3405.79
3419.14
3432.47
3445.76
3458.99
3472.15
3485.21
3498.13
3510.9
3523.47
3535.81
3547.87
3559.62
3570.99
3581.92
3592.35
3602.2
3611.39
3619.79
3627.3
3633.67
3638.94
3642.64
3644.86
3645.33
3643.06
3638.89
3630.95
3619.23
3599.53
3575.76
3537.46
2790
2790
2790
2790
2790
2790
2790
2790
2790
2790
2790
2790
2790
2790.1
2793.14
2817.99
2873.53
2916.08
2929.01
2927.86
2920.16
2909.67
2901.54
2894.43
2887.5
2880.7
2874.15
2867.97
2863.09
2860.95
2862.93
2878.34
2904.88
2922.45
2927.91
2928.36
2928.11
2928.9
2931.31
2933.93
2937.12
2941.15
2945.82
2950.79
2956.05
2961.6
2967.41
2973.48
2979.8
2986.32
2993.01
2999.92
3007.14
3014.7
3022.47
3030.37
3038.43
3046.72
3055.28
3064.11
3073.18
3082.48
3092.02
3101.76
3111.7
3121.83
3132.14
3142.64
3153.35
3164.28
3175.47
3186.92
3198.6
3210.5
3222.62
3234.92
3247.42
3260.08
3272.9
3285.87
3298.98
3312.21
3325.56
3339.01
3352.55
3366.19
3379.92
3393.72
3407.59
3421.51
3435.46
3449.45
3463.44
3477.43
3491.4
3505.34
3519.22
3533.03
3546.73
3560.31
3573.73
3586.96
3599.97
3612.72
3625.15
3637.22
3648.86
3660.01
3670.57
3680.46
3689.56
3697.72
3704.72
3710.52
3714.69
3717.22
3717.92
3715.05
3707.32
3696.63
3675.29
2790
2790
2790
2790
2790
2790
2790
2790
2790
2790
2790
2790
2790
2790.14
2794.01
2822
2878.57
2918.56
2930.29
2928.63
2919.98
2909.32
2901.15
2894.09
2887.39
2880.87
2874.49
2868.42
2863.91
2862.27
2865.89
2885.44
2912.68
2927.83
2931.93
2932.09
2931.83
2932.84
2935.54
2938.37
2941.82
2946.09
2950.96
2956.08
2961.46
2967.11
2973
2979.13
2985.5
2992.07
2998.82
3005.8
3013.11
3020.76
3028.62
3036.62
3044.79
3053.19
3061.88
3070.82
3080.01
3089.44
3099.11
3108.99
3119.07
3129.35
3139.81
3150.47
3161.34
3172.46
3183.83
3195.46
3207.34
3219.45
3231.78
3244.32
3257.04
3269.95
3283.03
3296.27
3309.66
3323.2
3336.86
3350.63
3364.53
3378.53
3392.65
3406.86
3421.16
3435.53
3449.98
3464.48
3479.03
3493.61
3508.22
3522.84
3537.45
3552.04
3566.59
3581.08
3595.49
3609.8
3623.98
3638.01
3651.85
3665.46
3678.8
3691.84
3704.52
3716.78
3728.52
3739.71
3750.19
3759.87
3768.6
3776.08
3782.56
3786.91
3789.39
3788.13
3784.48
2790
2790
2790
2790
2790
2790
2790
2790
2790
2790
2790
2790
2790
2790.22
2795.48
2827.71
2884.86
2921.19
2931.31
2929.11
2919.45
2908.64
2900.35
2893.23
2886.69
2880.48
2874.39
2868.58
2864.58
2863.69
2870.09
2893.95
2920.6
2932.86
2935.34
2935.25
2935.04
2936.36
2939.4
2942.48
2946.2
2950.73
2955.79
2961.06
2966.57
2972.32
2978.3
2984.5
2990.92
2997.54
3004.33
3011.37
3018.75
3026.47
3034.41
3042.49
3050.74
3059.25
3068.04
3077.09
3086.38
3095.93
3105.71
3115.71
3125.93
3136.34
3146.94
3157.75
3168.77
3180.05
3191.59
3203.4
3215.46
3227.76
3240.29
3253.02
3265.96
3279.09
3292.4
3305.88
3319.52
3333.31
3347.24
3361.3
3375.49
3389.8
3404.23
3418.78
3433.42
3448.17
3462.99
3477.9
3492.87
3507.9
3522.97
3538.09
3553.23
3568.38
3583.52
3598.64
3613.71
3628.74
3643.68
3658.53
3673.26
3687.82
3702.2
3716.35
3730.25
3743.82
3757.04
3769.84
3782.07
3793.65
3804.39
3814.28
3823.27
3831.01
3837.39
3840.97
3845.42
2790
2790
2790
2790
2790
2790
2790
2790
2790
2790
2790
2790
2790.01
2790.39
2797.79
2835.11
2891.92
2923.82
2931.81
2929.13
2918.59
2907.78
2899.34
2892.05
2885.51
2879.45
2873.65
2868.38
2865.13
2865.33
2876.1
2903.76
2928.18
2937.57
2938.42
2937.99
2937.88
2939.57
2942.95
2946.28
2950.28
2955.06
2960.29
2965.69
2971.33
2977.19
2983.26
2989.53
2996.02
3002.69
3009.53
3016.63
3024.1
3031.89
3039.89
3048.03
3056.36
3064.95
3073.82
3082.96
3092.34
3101.98
3111.87
3121.98
3132.31
3142.84
3153.56
3164.5
3175.66
3187.09
3198.78
3210.75
3222.97
3235.43
3248.13
3261.04
3274.16
3287.48
3300.99
3314.67
3328.52
3342.52
3356.68
3370.97
3385.4
3399.96
3414.65
3429.46
3444.38
3459.41
3474.53
3489.74
3505.02
3520.36
3535.76
3551.21
3566.68
3582.17
3597.65
3613.13
3628.57
3643.95
3659.24
3674.46
3689.53
3704.47
3719.25
3733.78
3747.97
3761.79
3775.31
3788.41
3800.99
3813
3824.21
3834.65
3843.82
3851.68
3857.8
3862
3865.79
2790
2790
2790
2790
2790
2790
2790
2790
2790
2790
2790
2790
2790.01
2790.71
2801.22
2844.03
2899.24
2926.33
2931.86
2928.41
2917.39
2906.82
2898.3
2890.78
2884.08
2877.98
2872.32
2867.79
2865.53
2867.48
2884.19
2914.39
2934.99
2941.73
2941.4
2940.47
2940.56
2942.64
2946.3
2949.86
2954.12
2959.12
2964.49
2969.99
2975.73
2981.69
2987.84
2994.2
3000.75
3007.46
3014.35
3021.53
3029.07
3036.93
3044.98
3053.17
3061.56
3070.23
3079.18
3088.4
3097.87
3107.6
3117.58
3127.79
3138.22
3148.85