/*--------------------------------*- C++ -*----------------------------------*\
| =========                 |                                                 |
| \\      /  F ield         | OpenFOAM: The Open Source CFD Toolbox           |
|  \\    /   O peration     | Version:  2406                                  |
|   \\  /    A nd           | Website:  www.openfoam.com                      |
|    \\/     M anipulation  |                                                 |
\*---------------------------------------------------------------------------*/
FoamFile
{
    version     2.0;
    format      ascii;
    arch        "LSB;label=32;scalar=64";
    class       volScalarField;
    location    "0.016";
    object      T;
}
// * * * * * * * * * * * * * * * * * * * * * * * * * * * * * * * * * * * * * //

dimensions      [0 0 0 1 0 0 0];

internalField   nonuniform List<scalar> 
78650
(
223
223
223
223
223
223
223
223.002
223.046
223.352
224.069
224.745
224.983
225.053
224.946
224.634
224.284
223.987
223.732
223.497
223.276
223.07
222.872
222.672
222.466
222.283
222.177
222.148
222.17
222.229
222.248
222.228
222.174
222.101
222.037
221.982
221.932
221.888
221.847
221.806
221.765
221.724
221.684
221.645
221.606
221.567
221.526
221.486
221.445
221.402
221.355
221.303
221.245
221.183
221.115
221.039
220.955
220.859
220.75
220.628
220.49
220.336
220.165
219.974
219.763
219.529
219.27
218.984
218.669
218.32
217.938
217.518
217.058
216.558
216.014
215.425
214.79
214.106
213.369
212.577
211.726
210.819
209.855
208.84
207.768
206.643
205.461
204.229
202.95
201.634
200.311
198.933
197.582
196.228
194.901
193.591
192.267
190.941
189.609
188.289
187.098
186.007
184.945
183.913
182.878
181.852
180.885
180.026
179.27
178.579
177.944
177.287
176.664
176.067
175.506
175.003
174.576
174.242
173.994
173.845
173.232
223
223
223
223
223
223
223
223.001
223.027
223.256
223.92
224.665
224.991
225.097
225.023
224.741
224.386
224.085
223.832
223.602
223.385
223.181
222.983
222.782
222.576
222.388
222.27
222.236
222.257
222.328
222.361
222.353
222.313
222.248
222.187
222.136
222.09
222.05
222.013
221.978
221.943
221.908
221.875
221.843
221.813
221.782
221.751
221.719
221.689
221.657
221.623
221.584
221.54
221.492
221.439
221.38
221.314
221.237
221.15
221.05
220.936
220.808
220.663
220.502
220.322
220.122
219.899
219.652
219.378
219.074
218.739
218.371
217.965
217.521
217.034
216.502
215.925
215.298
214.62
213.89
213.106
212.273
211.388
210.456
209.467
208.43
207.342
206.201
205.019
203.783
202.531
201.235
199.907
198.554
197.154
195.799
194.432
193.114
191.809
190.481
189.2
188
186.845
185.771
184.702
183.677
182.69
181.699
180.757
179.859
179.023
178.253
177.547
176.887
176.284
175.736
175.259
174.861
174.572
174.377
173.713
223
223
223
223
223
223
223
223
223.015
223.178
223.764
224.558
224.991
225.137
225.085
224.846
224.492
224.187
223.935
223.709
223.496
223.293
223.094
222.893
222.686
222.494
222.367
222.327
222.346
222.428
222.479
222.481
222.454
222.396
222.339
222.292
222.251
222.215
222.182
222.151
222.122
222.094
222.068
222.044
222.022
221.999
221.977
221.955
221.935
221.914
221.892
221.866
221.836
221.802
221.764
221.722
221.672
221.615
221.547
221.469
221.378
221.273
221.155
221.021
220.87
220.702
220.513
220.302
220.066
219.804
219.513
219.19
218.832
218.439
218.006
217.533
217.019
216.46
215.853
215.2
214.497
213.745
212.941
212.082
211.163
210.191
209.16
208.08
206.948
205.767
204.531
203.264
201.946
200.636
199.259
197.883
196.532
195.154
193.846
192.506
191.161
189.874
188.582
187.385
186.259
185.167
184.117
183.068
182.058
181.106
180.24
179.417
178.64
177.889
177.189
176.558
175.997
175.526
175.162
174.902
174.055
223
223
223
223
223
223
223
223
223.008
223.115
223.605
224.421
224.973
225.17
225.136
224.951
224.609
224.299
224.046
223.823
223.612
223.408
223.206
223.004
222.799
222.605
222.468
222.422
222.438
222.527
222.599
222.613
222.595
222.547
222.494
222.451
222.413
222.381
222.352
222.326
222.302
222.281
222.262
222.246
222.231
222.217
222.204
222.191
222.18
222.171
222.16
222.147
222.129
222.109
222.086
222.059
222.026
221.986
221.938
221.88
221.811
221.73
221.636
221.529
221.407
221.269
221.113
220.938
220.741
220.519
220.271
219.994
219.686
219.346
218.97
218.556
218.102
217.604
217.06
216.471
215.832
215.143
214.402
213.605
212.752
211.848
210.886
209.879
208.816
207.703
206.54
205.334
204.087
202.799
201.498
200.138
198.813
197.44
196.061
194.721
193.359
192.072
190.792
189.529
188.343
187.183
186.079
184.998
183.944
182.938
181.999
181.087
180.215
179.354
178.558
177.862
177.275
176.785
176.404
176.114
175.279
223
223
223
223
223
223
223
223
223.004
223.068
223.453
224.254
224.923
225.192
225.181
225.054
224.732
224.416
224.163
223.942
223.731
223.523
223.319
223.116
222.914
222.72
222.576
222.523
222.535
222.627
222.721
222.749
222.74
222.701
222.653
222.614
222.579
222.55
222.525
222.504
222.487
222.472
222.46
222.451
222.445
222.439
222.434
222.431
222.43
222.431
222.431
222.43
222.426
222.419
222.41
222.397
222.38
222.358
222.328
222.29
222.242
222.184
222.114
222.032
221.937
221.828
221.703
221.56
221.398
221.214
221.007
220.773
220.511
220.219
219.894
219.533
219.134
218.696
218.218
217.699
217.134
216.521
215.858
215.142
214.373
213.551
212.672
211.744
210.757
209.723
208.63
207.485
206.303
205.061
203.805
202.478
201.12
199.75
198.349
196.993
195.588
194.187
192.842
191.492
190.203
188.917
187.711
186.567
185.445
184.366
183.323
182.324
181.386
180.45
179.563
178.76
178.09
177.528
177.081
176.744
175.737
223
223
223
223
223
223
223
223
223.001
223.037
223.316
224.06
224.831
225.2
225.227
225.151
224.859
224.544
224.29
224.066
223.851
223.639
223.433
223.233
223.035
222.843
222.693
222.631
222.638
222.728
222.845
222.889
222.887
222.858
222.815
222.778
222.747
222.721
222.7
222.685
222.674
222.665
222.66
222.659
222.66
222.663
222.667
222.673
222.681
222.692
222.704
222.714
222.722
222.728
222.732
222.734
222.732
222.726
222.714
222.695
222.667
222.631
222.584
222.526
222.457
222.376
222.281
222.171
222.044
221.897
221.729
221.538
221.321
221.077
220.803
220.497
220.157
219.781
219.367
218.912
218.412
217.864
217.267
216.62
215.922
215.172
214.368
213.514
212.602
211.642
210.618
209.547
208.421
207.255
206.04
204.775
203.457
202.125
200.765
199.405
198.058
196.675
195.322
193.927
192.598
191.26
189.968
188.742
187.542
186.357
185.197
184.073
183.046
182.063
181.136
180.25
179.446
178.754
178.21
177.788
176.574
223
223
223
223
223
223
223
223
223.001
223.018
223.203
223.849
224.696
225.188
225.275
225.232
224.993
224.684
224.423
224.191
223.969
223.755
223.55
223.353
223.16
222.972
222.817
222.746
222.745
222.829
222.966
223.032
223.038
223.017
222.979
222.946
222.917
222.895
222.88
222.87
222.865
222.863
222.865
222.87
222.879
222.891
222.904
222.919
222.937
222.957
222.98
223.002
223.022
223.04
223.057
223.073
223.086
223.095
223.1
223.1
223.091
223.076
223.051
223.016
222.972
222.917
222.85
222.77
222.675
222.562
222.431
222.279
222.104
221.905
221.678
221.423
221.137
220.816
220.46
220.066
219.631
219.153
218.633
218.068
217.457
216.796
216.081
215.314
214.49
213.614
212.675
211.687
210.637
209.541
208.397
207.204
205.96
204.667
203.346
201.986
200.635
199.212
197.839
196.439
195.056
193.741
192.424
191.155
189.921
188.707
187.52
186.332
185.206
184.139
183.153
182.222
181.352
180.584
179.971
179.509
178.402
223
223
223
223
223
223
223
223
223
223.008
223.117
223.636
224.513
225.147
225.306
225.305
225.133
224.834
224.557
224.313
224.088
223.875
223.672
223.479
223.292
223.109
222.952
222.868
222.859
222.931
223.085
223.176
223.191
223.176
223.143
223.114
223.09
223.073
223.061
223.057
223.058
223.063
223.072
223.085
223.101
223.121
223.143
223.167
223.194
223.224
223.257
223.29
223.322
223.352
223.382
223.41
223.437
223.462
223.483
223.499
223.509
223.513
223.51
223.497
223.477
223.447
223.407
223.356
223.292
223.214
223.119
223.005
222.872
222.717
222.537
222.331
222.097
221.831
221.534
221.202
220.835
220.428
219.981
219.488
218.949
218.359
217.715
217.019
216.269
215.467
214.607
213.694
212.716
211.693
210.615
209.491
208.317
207.085
205.823
204.501
203.183
201.78
200.368
198.974
197.551
196.166
194.714
193.317
191.957
190.648
189.401
188.14
186.904
185.707
184.598
183.571
182.615
181.738
180.967
180.37
178.835
223
223
223
223
223
223
223
223
223
223.003
223.06
223.439
224.288
225.058
225.319
225.376
225.265
224.984
224.688
224.435
224.21
224
223.8
223.61
223.429
223.251
223.093
222.996
222.976
223.034
223.196
223.316
223.345
223.336
223.309
223.285
223.266
223.253
223.246
223.246
223.254
223.266
223.282
223.303
223.327
223.355
223.386
223.419
223.455
223.495
223.538
223.581
223.624
223.666
223.707
223.748
223.789
223.828
223.864
223.897
223.925
223.947
223.963
223.972
223.975
223.969
223.954
223.931
223.895
223.848
223.786
223.707
223.612
223.497
223.36
223.201
223.016
222.803
222.562
222.29
221.984
221.642
221.26
220.836
220.369
219.855
219.294
218.685
218.025
217.315
216.549
215.729
214.847
213.915
212.921
211.881
210.785
209.639
208.436
207.185
205.88
204.56
203.201
201.847
200.441
199.08
197.661
196.256
194.891
193.543
192.262
190.964
189.671
188.361
187.111
185.971
184.948
184.024
183.202
182.504
180.717
223
223
223
223
223
223
223
223
223
223.001
223.027
223.274
224.03
224.914
225.319
225.444
225.376
225.127
224.822
224.563
224.339
224.131
223.933
223.747
223.572
223.401
223.241
223.129
223.098
223.137
223.297
223.45
223.498
223.495
223.476
223.456
223.443
223.434
223.432
223.439
223.452
223.472
223.495
223.523
223.555
223.591
223.63
223.672
223.717
223.765
223.818
223.872
223.925
223.978
224.03
224.083
224.137
224.189
224.24
224.288
224.333
224.373
224.408
224.438
224.461
224.477
224.487
224.49
224.482
224.465
224.436
224.392
224.333
224.257
224.163
224.048
223.911
223.749
223.561
223.344
223.096
222.816
222.501
222.148
221.757
221.324
220.847
220.324
219.752
219.129
218.454
217.725
216.937
216.094
215.189
214.236
213.222
212.156
211.026
209.841
208.61
207.331
206.014
204.661
203.259
201.827
200.436
198.983
197.555
196.118
194.761
193.433
192.129
190.802
189.469
188.221
187.105
186.145
185.352
184.712
183.132
223
223
223
223
223
223
223
223
223
223
223.011
223.152
223.764
224.711
225.297
225.496
225.458
225.267
224.965
224.699
224.473
224.266
224.071
223.889
223.719
223.552
223.391
223.265
223.218
223.239
223.386
223.572
223.65
223.656
223.643
223.628
223.62
223.618
223.622
223.633
223.654
223.68
223.71
223.745
223.785
223.829
223.877
223.927
223.98
224.037
224.099
224.162
224.226
224.289
224.353
224.417
224.482
224.548
224.612
224.676
224.736
224.793
224.846
224.895
224.938
224.976
225.008
225.034
225.052
225.062
225.064
225.051
225.027
224.987
224.931
224.857
224.764
224.649
224.511
224.347
224.158
223.94
223.69
223.406
223.086
222.725
222.324
221.878
221.385
220.844
220.253
219.611
218.913
218.161
217.348
216.481
215.553
214.575
213.538
212.451
211.31
210.118
208.877
207.575
206.258
204.88
203.516
202.08
200.65
199.141
197.666
196.231
194.84
193.47
192.071
190.713
189.396
188.211
187.203
186.352
184.297
223
223
223
223
223
223
223
223
223
223
223.004
223.074
223.517
224.452
225.225
225.521
225.522
225.404
225.117
224.84
224.608
224.404
224.215
224.037
223.868
223.702
223.538
223.4
223.336
223.342
223.467
223.683
223.8
223.82
223.812
223.801
223.798
223.804
223.814
223.831
223.857
223.889
223.926
223.968
224.015
224.067
224.123
224.182
224.243
224.308
224.377
224.45
224.524
224.597
224.67
224.745
224.822
224.899
224.977
225.054
225.129
225.202
225.272
225.338
225.401
225.459
225.512
225.561
225.605
225.64
225.668
225.687
225.694
225.691
225.672
225.638
225.587
225.518
225.427
225.314
225.178
225.016
224.825
224.603
224.349
224.059
223.732
223.365
222.956
222.502
222.003
221.455
220.855
220.201
219.487
218.718
217.892
217.017
216.079
215.085
214.023
212.906
211.732
210.507
209.229
207.917
206.563
205.202
203.812
202.385
200.946
199.502
198.095
196.75
195.381
194.043
192.716
191.476
190.423
189.567
187.759
223
223
223
223
223
223
223
223
223
223
223.001
223.032
223.316
224.156
225.079
225.518
225.588
225.525
225.265
224.98
224.746
224.548
224.362
224.183
224.01
223.843
223.678
223.533
223.454
223.445
223.546
223.782
223.944
223.985
223.983
223.976
223.978
223.991
224.008
224.03
224.061
224.099
224.143
224.192
224.247
224.306
224.369
224.436
224.505
224.577
224.654
224.736
224.818
224.901
224.984
225.069
225.156
225.245
225.334
225.425
225.514
225.602
225.688
225.771
225.851
225.928
226.001
226.071
226.137
226.198
226.252
226.298
226.334
226.36
226.375
226.379
226.367
226.339
226.294
226.227
226.141
226.032
225.899
225.74
225.551
225.331
225.078
224.788
224.458
224.087
223.673
223.213
222.704
222.143
221.528
220.862
220.139
219.362
218.522
217.625
216.664
215.649
214.573
213.44
212.245
210.994
209.703
208.374
207.007
205.599
204.128
202.608
201.058
199.578
198.079
196.59
195.145
193.744
192.482
191.449
189.132
223
223
223
223
223
223
223
223
223
223
223
223.012
223.171
223.854
224.864
225.488
225.647
225.612
225.407
225.128
224.893
224.694
224.504
224.318
224.144
223.978
223.816
223.667
223.573
223.552
223.627
223.871
224.08
224.151
224.157
224.155
224.161
224.179
224.201
224.229
224.265
224.31
224.36
224.416
224.476
224.542
224.613
224.687
224.763
224.842
224.926
225.015
225.106
225.198
225.29
225.384
225.481
225.58
225.681
225.783
225.886
225.987
226.088
226.187
226.284
226.378
226.471
226.56
226.647
226.73
226.808
226.88
226.946
227.002
227.049
227.085
227.109
227.12
227.119
227.096
227.058
226.999
226.92
226.816
226.687
226.53
226.343
226.123
225.869
225.577
225.246
224.873
224.456
223.992
223.48
222.918
222.298
221.625
220.892
220.103
219.252
218.344
217.375
216.35
215.263
214.12
212.923
211.683
210.405
209.083
207.713
206.319
204.838
203.352
201.925
200.492
199.135
197.737
196.438
195.261
192.746
223
223
223
223
223
223
223
223
223
223
223
223.004
223.082
223.579
224.595
225.413
225.668
225.681
225.545
225.284
225.04
224.828
224.632
224.446
224.273
224.11
223.951
223.801
223.695
223.662
223.712
223.951
224.205
224.314
224.334
224.337
224.345
224.367
224.394
224.427
224.468
224.519
224.575
224.637
224.703
224.775
224.852
224.933
225.016
225.102
225.192
225.288
225.387
225.488
225.589
225.691
225.797
225.906
226.018
226.131
226.246
226.361
226.475
226.589
226.701
226.812
226.921
227.029
227.136
227.239
227.34
227.436
227.526
227.609
227.685
227.753
227.81
227.856
227.89
227.909
227.915
227.903
227.874
227.824
227.75
227.654
227.531
227.38
227.198
226.983
226.732
226.443
226.114
225.742
225.323
224.854
224.331
223.757
223.126
222.442
221.697
220.896
220.033
219.111
218.126
217.079
215.963
214.789
213.561
212.292
210.979
209.615
208.204
206.717
205.234
203.764
202.396
200.964
199.699
198.594
196.224
223
223
223
223
223
223
223
223
223
223
223
223.001
223.035
223.358
224.292
225.275
225.659
225.755
225.679
225.434
225.171
224.95
224.755
224.573
224.403
224.242
224.083
223.932
223.817
223.773
223.804
224.028
224.321
224.473
224.512
224.52
224.53
224.554
224.586
224.623
224.669
224.724
224.786
224.854
224.926
225.003
225.085
225.172
225.261
225.353
225.45
225.552
225.659
225.767
225.876
225.987
226.101
226.219
226.341
226.464
226.59
226.717
226.844
226.972
227.099
227.225
227.35
227.474
227.598
227.721
227.842
227.96
228.073
228.182
228.285
228.381
228.469
228.549
228.618
228.675
228.719
228.75
228.765
228.766
228.744
228.704
228.64
228.551
228.436
228.291
228.115
227.905
227.659
227.374
227.046
226.674
226.254
225.788
225.27
224.701
224.074
223.391
222.646
221.842
220.976
220.049
219.054
217.997
216.879
215.717
214.511
213.259
211.937
210.541
209.075
207.586
206.151
204.657
203.245
201.947
199.322
223
223
223
223
223
223
223
223
223
223
223
223
223.013
223.202
223.984
225.076
225.64
225.825
225.774
225.564
225.294
225.07
224.879
224.7
224.529
224.365
224.208
224.057
223.937
223.885
223.903
224.102
224.429
224.626
224.688
224.701
224.712
224.736
224.771
224.812
224.863
224.923
224.991
225.063
225.14
225.222
225.309
225.401
225.496
225.595
225.697
225.805
225.919
226.035
226.152
226.271
226.393
226.52
226.65
226.784
226.92
227.058
227.197
227.337
227.477
227.617
227.757
227.897
228.037
228.177
228.316
228.454
228.589
228.72
228.847
228.969
229.085
229.194
229.294
229.386
229.467
229.536
229.592
229.635
229.662
229.673
229.665
229.634
229.581
229.502
229.396
229.26
229.092
228.89
228.651
228.372
228.05
227.685
227.271
226.807
226.288
225.715
225.081
224.392
223.641
222.83
221.955
221.019
220.017
218.959
217.842
216.68
215.458
214.181
212.839
211.448
210.047
208.691
207.322
206.175
203.918
223
223
223
223
223
223
223
223
223
223
223
223
223.005
223.105
223.707
224.832
225.604
225.866
225.84
225.68
225.415
225.192
225.001
224.819
224.643
224.479
224.325
224.179
224.058
223.998
224.007
224.178
224.529
224.772
224.856
224.875
224.886
224.91
224.948
224.993
225.048
225.113
225.186
225.263
225.345
225.431
225.523
225.62
225.721
225.825
225.933
226.047
226.166
226.29
226.415
226.541
226.671
226.806
226.945
227.087
227.233
227.381
227.531
227.683
227.835
227.987
228.141
228.294
228.449
228.604
228.76
228.916
229.07
229.222
229.371
229.516
229.657
229.793
229.922
230.044
230.158
230.262
230.357
230.44
230.51
230.565
230.605
230.627
230.633
230.613
230.573
230.507
230.411
230.286
230.129
229.936
229.706
229.433
229.116
228.752
228.338
227.873
227.352
226.777
226.143
225.451
224.699
223.885
223.006
222.06
221.049
219.982
218.854
217.674
216.42
215.109
213.739
212.347
210.94
209.621
207.311
223
223
223
223
223
223
223
223
223
223
223
223
223.002
223.052
223.484
224.568
225.525
225.883
225.892
225.787
225.539
225.31
225.11
224.923
224.746
224.585
224.437
224.298
224.177
224.109
224.108
224.253
224.619
224.904
225.012
225.037
225.048
225.074
225.115
225.164
225.222
225.292
225.369
225.451
225.538
225.629
225.725
225.827
225.933
226.042
226.156
226.275
226.401
226.531
226.663
226.797
226.935
227.077
227.223
227.374
227.529
227.687
227.847
228.008
228.172
228.336
228.501
228.667
228.835
229.005
229.175
229.347
229.518
229.688
229.856
230.023
230.186
230.345
230.5
230.649
230.792
230.928
231.056
231.174
231.283
231.38
231.465
231.534
231.588
231.624
231.641
231.641
231.609
231.558
231.475
231.362
231.216
231.033
230.811
230.549
230.244
229.893
229.491
229.039
228.529
227.966
227.341
226.657
225.908
225.094
224.218
223.281
222.285
221.238
220.126
218.976
217.763
216.55
215.277
214.046
211.943
223
223
223
223
223
223
223
223
223
223
223
223
223.001
223.025
223.32
224.31
225.406
225.878
225.949
225.886
225.654
225.411
225.203
225.015
224.843
224.687
224.546
224.412
224.289
224.211
224.201
224.323
224.699
225.024
225.157
225.189
225.202
225.228
225.272
225.324
225.385
225.459
225.541
225.627
225.718
225.814
225.914
226.021
226.132
226.247
226.366
226.491
226.622
226.759
226.898
227.039
227.183
227.332
227.486
227.645
227.807
227.974
228.142
228.314
228.487
228.661
228.837
229.014
229.194
229.376
229.56
229.745
229.931
230.118
230.303
230.488
230.671
230.851
231.029
231.202
231.371
231.535
231.692
231.842
231.985
232.119
232.242
232.354
232.454
232.539
232.607
232.659
232.691
232.704
232.693
232.653
232.588
232.489
232.358
232.19
231.983
231.733
231.436
231.091
230.691
230.239
229.727
229.157
228.526
227.834
227.079
226.257
225.374
224.425
223.415
222.351
221.225
220.078
218.852
217.608
215.711
223
223
223
223
223
223
223
223
223
223
223
223
223
223.012
223.209
224.08
225.266
225.866
226.008
225.964
225.75
225.496
225.284
225.101
224.935
224.787
224.65
224.514
224.386
224.3
224.282
224.39
224.776
225.139
225.295
225.335
225.349
225.375
225.421
225.475
225.538
225.614
225.7
225.79
225.886
225.986
226.091
226.202
226.319
226.44
226.564
226.694
226.83
226.973
227.119
227.266
227.417
227.572
227.733
227.899
228.069
228.242
228.419
228.599
228.78
228.964
229.15
229.337
229.527
229.72
229.915
230.113
230.313
230.513
230.714
230.914
231.114
231.313
231.51
231.705
231.896
232.084
232.267
232.445
232.617
232.783
232.94
233.089
233.228
233.356
233.472
233.573
233.659
233.727
233.776
233.803
233.811
233.787
233.738
233.655
233.537
233.383
233.187
232.949
232.662
232.328
231.939
231.498
230.998
230.44
229.818
229.132
228.383
227.564
226.689
225.751
224.769
223.745
222.678
221.5
219.857
223
223
223
223
223
223
223
223
223
223
223
223
223
223.006
223.139
223.891
225.126
225.853
226.056
226.022
225.826
225.568
225.359
225.183
225.024
224.878
224.738
224.598
224.465
224.375
224.353
224.458
224.859
225.257
225.431
225.477
225.492
225.517
225.563
225.617
225.68
225.758
225.847
225.941
226.041
226.146
226.256
226.372
226.494
226.62
226.75
226.885
227.027
227.175
227.326
227.48
227.637
227.798
227.965
228.137
228.313
228.493
228.677
228.864
229.053
229.245
229.439
229.635
229.834
230.037
230.242
230.451
230.662
230.874
231.088
231.302
231.517
231.732
231.946
232.158
232.369
232.577
232.782
232.984
233.182
233.375
233.562
233.743
233.917
234.081
234.237
234.381
234.514
234.632
234.736
234.822
234.889
234.934
234.958
234.959
234.922
234.862
234.764
234.628
234.452
234.231
233.962
233.644
233.268
232.837
232.341
231.785
231.164
230.475
229.724
228.903
228.033
227.106
226.138
225.053
223.548
223
223
223
223
223
223
223
223
223
223
223
223
223
223.004
223.098
223.749
225.002
225.841
226.094
226.065
225.888
225.631
225.428
225.259
225.103
224.954
224.808
224.664
224.53
224.44
224.42
224.533
224.956
225.384
225.57
225.618
225.631
225.654
225.699
225.752
225.814
225.892
225.983
226.081
226.185
226.295
226.41
226.532
226.659
226.79
226.925
227.065
227.212
227.365
227.522
227.681
227.843
228.009
228.181
228.359
228.541
228.727
228.917
229.11
229.306
229.505
229.706
229.91
230.117
230.327
230.542
230.759
230.98
231.203
231.428
231.654
231.882
232.11
232.338
232.566
232.793
233.019
233.243
233.465
233.684
233.9
234.112
234.32
234.523
234.719
234.908
235.089
235.261
235.423
235.573
235.71
235.832
235.937
236.023
236.09
236.132
236.151
236.144
236.097
236.021
235.903
235.741
235.534
235.273
234.961
234.587
234.156
233.656
233.094
232.465
231.769
231.021
230.214
229.37
228.407
227.081
223
223
223
223
223
223
223
223
223
223
223
223
223
223.002
223.075
223.653
224.907
225.835
226.122
226.098
225.937
225.686
225.49
225.324
225.167
225.011
224.861
224.716
224.583
224.498
224.484
224.617
225.069
225.52
225.709
225.755
225.764
225.784
225.828
225.88
225.941
226.02
226.113
226.214
226.322
226.436
226.557
226.683
226.815
226.952
227.091
227.236
227.387
227.544
227.706
227.87
228.036
228.207
228.384
228.566
228.753
228.944
229.139
229.338
229.54
229.745
229.952
230.163
230.376
230.594
230.815
231.041
231.27
231.501
231.736
231.972
232.21
232.449
232.69
232.93
233.171
233.412
233.651
233.89
234.127
234.363
234.596
234.826
235.052
235.274
235.492
235.703
235.909
236.106
236.295
236.475
236.643
236.799
236.941
237.068
237.176
237.263
237.328
237.368
237.383
237.363
237.308
237.217
237.08
236.899
236.664
236.376
236.02
235.604
235.112
234.552
233.92
233.216
232.461
231.581
230.36
223
223
223
223
223
223
223
223
223
223
223
223
223
223.002
223.065
223.602
224.853
225.839
226.146
226.128
225.978
225.732
225.54
225.375
225.213
225.053
224.901
224.756
224.626
224.55
224.546
224.71
225.2
225.664
225.846
225.885
225.89
225.907
225.951
226.002
226.064
226.145
226.24
226.344
226.456
226.574
226.698
226.829
226.965
227.106
227.249
227.397
227.552
227.713
227.879
228.047
228.217
228.392
228.573
228.759
228.95
229.146
229.346
229.549
229.756
229.966
230.179
230.395
230.614
230.837
231.065
231.297
231.533
231.772
232.014
232.259
232.506
232.754
233.004
233.256
233.508
233.761
234.013
234.266
234.518
234.769
235.019
235.267
235.513
235.757
235.997
236.234
236.466
236.693
236.914
237.128
237.334
237.532
237.719
237.894
238.057
238.205
238.336
238.448
238.538
238.604
238.644
238.656
238.627
238.56
238.447
238.283
238.06
237.781
237.429
237.017
236.524
235.958
235.317
234.549
233.463
223
223
223
223
223
223
223
223
223
223
223
223
223
223.002
223.063
223.591
224.843
225.853
226.171
226.156
226.007
225.766
225.577
225.411
225.246
225.084
224.931
224.787
224.662
224.595
224.603
224.814
225.347
225.808
225.978
226.007
226.007
226.022
226.068
226.121
226.185
226.268
226.367
226.474
226.588
226.709
226.837
226.97
227.11
227.253
227.4
227.551
227.709
227.873
228.042
228.213
228.387
228.566
228.75
228.94
229.134
229.334
229.537
229.745
229.955
230.17
230.387
230.608
230.832
231.061
231.294
231.531
231.773
232.018
232.267
232.518
232.772
233.029
233.287
233.547
233.809
234.071
234.334
234.598
234.862
235.126
235.389
235.652
235.914
236.175
236.434
236.69
236.944
237.194
237.441
237.683
237.92
238.15
238.374
238.589
238.796
238.992
239.176
239.347
239.502
239.64
239.756
239.85
239.917
239.956
239.966
239.93
239.854
239.725
239.535
239.291
238.96
238.558
238.035
237.399
236.441
223
223
223
223
223
223
223
223
223
223
223
223
223
223.002
223.065
223.605
224.873
225.885
226.199
226.181
226.023
225.784
225.597
225.431
225.268
225.107
224.954
224.81
224.69
224.632
224.655
224.931
225.507
225.948
226.099
226.118
226.114
226.129
226.179
226.235
226.303
226.39
226.492
226.602
226.719
226.842
226.972
227.108
227.249
227.395
227.544
227.697
227.857
228.024
228.196
228.37
228.547
228.728
228.916
229.108
229.306
229.508
229.715
229.926
230.141
230.359
230.58
230.805
231.033
231.266
231.504
231.746
231.993
232.243
232.497
232.755
233.015
233.278
233.543
233.81
234.079
234.35
234.621
234.894
235.167
235.442
235.716
235.991
236.266
236.54
236.813
237.085
237.356
237.625
237.891
238.155
238.415
238.672
238.924
239.17
239.411
239.644
239.869
240.086
240.291
240.485
240.665
240.83
240.976
241.1
241.202
241.274
241.314
241.321
241.277
241.2
241.057
240.855
240.522
240.127
239.41
223
223
223
223
223
223
223
223
223
223
223
223
223
223.002
223.074
223.659
224.954
225.934
226.229
226.203
226.028
225.787
225.601
225.437
225.278
225.121
224.97
224.827
224.714
224.664
224.71
225.067
225.678
226.081
226.206
226.216
226.211
226.229
226.284
226.343
226.416
226.508
226.614
226.727
226.847
226.972
227.104
227.241
227.384
227.531
227.681
227.836
227.998
228.167
228.341
228.517
228.697
228.881
229.071
229.266
229.467
229.672
229.881
230.095
230.313
230.534
230.759
230.987
231.219
231.456
231.697
231.944
232.195
232.45
232.708
232.971
233.236
233.504
233.775
234.049
234.324
234.601
234.88
235.16
235.442
235.724
236.008
236.292
236.577
236.862
237.146
237.431
237.715
237.998
238.28
238.561
238.839
239.115
239.389
239.659
239.925
240.186
240.443
240.693
240.937
241.173
241.4
241.616
241.821
242.012
242.188
242.346
242.479
242.588
242.668
242.726
242.751
242.718
242.616
242.476
242.102
223
223
223
223
223
223
223
223
223
223
223
223
223
223.003
223.095
223.754
225.07
225.99
226.259
226.221
226.023
225.779
225.592
225.43
225.275
225.125
224.978
224.837
224.733
224.695
224.779
225.231
225.857
226.204
226.298
226.301
226.296
226.318
226.38
226.445
226.523
226.62
226.731
226.847
226.969
227.097
227.23
227.369
227.512
227.66
227.812
227.968
228.132
228.303
228.478
228.657
228.838
229.025
229.217
229.415
229.617
229.825
230.037
230.253
230.474
230.698
230.926
231.157
231.392
231.632
231.878
232.127
232.382
232.641
232.904
233.17
233.44
233.713
233.989
234.267
234.548
234.831
235.116
235.402
235.69
235.979
236.27
236.562
236.855
237.148
237.442
237.737
238.031
238.325
238.619
238.912
239.204
239.495
239.784
240.071
240.355
240.637
240.916
241.19
241.46
241.724
241.983
242.235
242.48
242.716
242.942
243.157
243.357
243.541
243.706
243.85
243.986
244.102
244.188
244.209
244.17
223
223
223
223
223
223
223
223
223
223
223
223
223
223.005
223.13
223.887
225.215
226.051
226.282
226.232
226.011
225.764
225.574
225.41
225.259
225.116
224.975
224.841
224.748
224.728
224.876
225.427
226.039
226.319
226.375
226.374
226.369
226.399
226.468
226.538
226.623
226.726
226.841
226.96
227.085
227.215
227.35
227.49
227.634
227.783
227.935
228.093
228.258
228.431
228.607
228.787
228.97
229.159
229.353
229.553
229.758
229.967
230.182
230.401
230.623
230.85
231.081
231.315
231.553
231.796
232.044
232.298
232.556
232.818
233.085
233.355
233.629
233.906
234.186
234.469
234.754
235.042
235.332
235.623
235.917
236.212
236.508
236.806
237.105
237.406
237.707
238.008
238.31
238.613
238.915
239.217
239.519
239.82
240.12
240.418
240.715
241.009
241.302
241.591
241.877
242.159
242.437
242.71
242.977
243.238
243.492
243.737
243.971
244.191
244.393
244.581
244.759
244.929
245.089
245.198
245.303
223
223
223
223
223
223
223
223
223
223
223
223
223
223.009
223.184
224.06
225.378
226.111
226.293
226.232
225.992
225.744
225.55
225.383
225.232
225.092
224.958
224.836
224.761
224.766
225.015
225.653
226.212
226.426
226.446
226.436
226.434
226.472
226.549
226.625
226.716
226.824
226.943
227.065
227.193
227.325
227.462
227.603
227.749
227.899
228.052
228.211
228.378
228.551
228.729
228.91
229.095
229.285
229.481
229.682
229.889
230.1
230.317
230.537
230.763
230.991
231.224
231.461
231.702
231.948
232.199
232.455
232.716
232.982
233.251
233.525
233.802
234.083
234.366
234.653
234.942
235.234
235.528
235.823
236.121
236.421
236.722
237.025
237.329
237.634
237.94
238.248
238.555
238.863
239.171
239.479
239.786
240.093
240.399
240.704
241.007
241.308
241.606
241.902
242.194
242.483
242.768
243.048
243.32
243.585
243.844
244.095
244.335
244.562
244.772
244.97
245.153
245.325
245.476
245.59
245.676
223
223
223
223
223
223
223
223
223
223
223
223
223
223.017
223.265
224.269
225.547
226.168
226.295
226.216
225.964
225.722
225.526
225.354
225.199
225.058
224.927
224.823
224.77
224.816
225.202
225.897
226.368
226.521
226.514
226.493
226.495
226.542
226.625
226.706
226.803
226.916
227.038
227.162
227.292
227.427
227.565
227.708
227.855
228.006
228.16
228.32
228.489
228.663
228.842
229.024
229.21
229.402
229.599
229.802
230.01
230.223
230.442
230.664
230.891
231.122
231.357
231.595
231.839
232.087
232.341
232.6
232.864
233.132
233.404
233.681
233.961
234.245
234.531
234.821
235.113
235.408
235.705
236.004
236.304
236.607
236.912
237.218
237.525
237.833
238.143
238.453
238.763
239.074
239.385
239.695
240.005
240.313
240.62
240.926
241.229
241.53
241.829
242.123
242.411
242.695