/*--------------------------------*- C++ -*----------------------------------*\
| =========                 |                                                 |
| \\      /  F ield         | OpenFOAM: The Open Source CFD Toolbox           |
|  \\    /   O peration     | Version:  2406                                  |
|   \\  /    A nd           | Website:  www.openfoam.com                      |
|    \\/     M anipulation  |                                                 |
\*---------------------------------------------------------------------------*/
FoamFile
{
    version     2.0;
    format      ascii;
    arch        "LSB;label=32;scalar=64";
    class       volVectorField;
    location    "0.016";
    object      U;
}
// * * * * * * * * * * * * * * * * * * * * * * * * * * * * * * * * * * * * * //

dimensions      [0 1 -1 0 0 0 0];

internalField   nonuniform List<vector> 
78650
(
(210 -3.33056e-13 0)
(210 -5.85151e-12 0)
(210 -7.67241e-12 0)
(210 2.84917e-12 0)
(210 1.85443e-09 0)
(210 2.3789e-07 0)
(210 2.52258e-05 0)
(209.994 0.00192691 0)
(209.858 0.0535447 0)
(208.941 0.475469 0)
(206.828 1.57522 0)
(204.951 2.6837 0)
(203.987 3.28826 0)
(204.003 3.4234 0)
(204.317 3.35329 0)
(205.189 3.05622 0)
(206.173 2.72732 0)
(207.083 2.61067 0)
(207.841 2.50588 0)
(208.576 2.45728 0)
(209.298 2.41238 0)
(209.993 2.38651 0)
(210.666 2.39033 0)
(211.336 2.43895 0)
(212.02 2.52834 0)
(212.65 2.71563 0)
(213.064 3.09442 0)
(213.222 3.62815 0)
(213.272 4.23854 0)
(213.223 4.99832 0)
(213.299 5.69944 0)
(213.472 6.35161 0)
(213.741 6.93501 0)
(214.067 7.49832 0)
(214.357 8.11548 0)
(214.615 8.78978 0)
(214.856 9.51327 0)
(215.081 10.2861 0)
(215.297 11.1033 0)
(215.5 11.9598 0)
(215.687 12.8527 0)
(215.867 13.7796 0)
(216.04 14.7427 0)
(216.199 15.7439 0)
(216.35 16.782 0)
(216.496 17.8553 0)
(216.639 18.9645 0)
(216.779 20.1125 0)
(216.918 21.3 0)
(217.06 22.5244 0)
(217.212 23.7823 0)
(217.377 25.073 0)
(217.553 26.3996 0)
(217.737 27.7643 0)
(217.94 29.167 0)
(218.161 30.6073 0)
(218.406 32.0832 0)
(218.68 33.5939 0)
(218.994 35.1395 0)
(219.352 36.7187 0)
(219.749 38.3326 0)
(220.207 39.9817 0)
(220.724 41.6659 0)
(221.296 43.3864 0)
(221.952 45.1418 0)
(222.678 46.9309 0)
(223.488 48.7526 0)
(224.409 50.6018 0)
(225.424 52.4756 0)
(226.552 54.3695 0)
(227.818 56.2761 0)
(229.21 58.1898 0)
(230.741 60.1074 0)
(232.444 62.0201 0)
(234.292 63.9268 0)
(236.314 65.8199 0)
(238.531 67.6828 0)
(240.913 69.5102 0)
(243.49 71.2833 0)
(246.275 72.9752 0)
(249.238 74.5837 0)
(252.412 76.0843 0)
(255.773 77.5018 0)
(259.352 78.7741 0)
(263.091 79.9594 0)
(267.056 80.97 0)
(271.178 81.8408 0)
(275.491 82.5662 0)
(279.881 83.1076 0)
(284.337 83.5112 0)
(288.915 83.749 0)
(293.273 83.8373 0)
(297.896 83.7309 0)
(302.141 83.5506 0)
(306.932 83.1483 0)
(311.947 82.4213 0)
(317.073 81.4728 0)
(321.577 80.5852 0)
(325.68 79.5906 0)
(328.746 78.9223 0)
(332.158 77.9934 0)
(335.7 77.2514 0)
(339.916 76.2339 0)
(343.694 75.0591 0)
(347.008 73.8652 0)
(349.847 72.9328 0)
(352.64 71.9968 0)
(355.142 71.2149 0)
(358.099 70.0461 0)
(360.303 69.0848 0)
(363.084 67.8186 0)
(364.919 67.077 0)
(366.916 66.1313 0)
(368.025 65.7161 0)
(368.797 65.0283 0)
(369.266 64.7464 0)
(370.267 64.3159 0)
(371.886 64.102 0)
(374.078 63.8122 0)
(376.891 63.4839 0)
(377.935 65.0638 0)
(210 -2.82309e-12 0)
(210 -4.3613e-12 0)
(210 -6.55835e-12 0)
(210 -5.74771e-12 0)
(210 5.07133e-10 0)
(210 6.95139e-08 0)
(210 8.41237e-06 0)
(209.997 0.000812839 0)
(209.915 0.0292757 0)
(209.215 0.32741 0)
(207.235 1.30053 0)
(205.131 2.4881 0)
(203.931 3.18147 0)
(203.887 3.35941 0)
(204.04 3.36615 0)
(204.83 3.15461 0)
(205.831 2.82616 0)
(206.752 2.68919 0)
(207.5 2.56883 0)
(208.225 2.51287 0)
(208.937 2.46312 0)
(209.622 2.43518 0)
(210.285 2.44498 0)
(210.945 2.50434 0)
(211.622 2.60174 0)
(212.256 2.77636 0)
(212.688 3.1236 0)
(212.85 3.62392 0)
(212.895 4.19258 0)
(212.799 4.94399 0)
(212.828 5.64321 0)
(212.966 6.29923 0)
(213.185 6.88588 0)
(213.48 7.44408 0)
(213.749 8.05292 0)
(213.983 8.71767 0)
(214.201 9.4302 0)
(214.402 10.1919 0)
(214.592 10.9991 0)
(214.766 11.8469 0)
(214.923 12.7299 0)
(215.074 13.6451 0)
(215.213 14.5952 0)
(215.336 15.5817 0)
(215.448 16.6037 0)
(215.553 17.6595 0)
(215.654 18.7498 0)
(215.75 19.8777 0)
(215.841 21.045 0)
(215.932 22.25 0)
(216.029 23.4895 0)
(216.136 24.7619 0)
(216.251 26.0697 0)
(216.373 27.4153 0)
(216.508 28.7993 0)
(216.656 30.2219 0)
(216.823 31.681 0)
(217.013 33.1763 0)
(217.238 34.7079 0)
(217.5 36.2746 0)
(217.795 37.8774 0)
(218.145 39.5178 0)
(218.544 41.1957 0)
(218.992 42.9128 0)
(219.514 44.6689 0)
(220.096 46.4634 0)
(220.753 48.2956 0)
(221.511 50.162 0)
(222.352 52.059 0)
(223.298 53.9842 0)
(224.373 55.9339 0)
(225.562 57.9047 0)
(226.883 59.8937 0)
(228.365 61.8893 0)
(229.984 63.8841 0)
(231.771 65.8687 0)
(233.746 67.8307 0)
(235.874 69.7674 0)
(238.191 71.6642 0)
(240.706 73.5051 0)
(243.394 75.2922 0)
(246.285 77.0143 0)
(249.367 78.6751 0)
(252.662 80.2272 0)
(256.105 81.7069 0)
(259.771 83.0144 0)
(263.572 84.2332 0)
(267.565 85.2597 0)
(271.757 86.1589 0)
(276.005 86.8367 0)
(280.574 87.4337 0)
(284.934 87.7473 0)
(289.849 87.9369 0)
(294.625 87.7754 0)
(299.575 87.4864 0)
(304.484 87.0973 0)
(308.681 86.8078 0)
(313.008 86.3293 0)
(316.904 85.7857 0)
(321.035 85.0537 0)
(325.885 83.9996 0)
(330.139 82.8985 0)
(334.225 81.8529 0)
(337.919 80.8379 0)
(340.918 80.1269 0)
(343.987 79.2525 0)
(346.731 78.4706 0)
(349.403 77.6572 0)
(352.149 76.6757 0)
(354.475 75.9115 0)
(356.989 74.9034 0)
(359.058 74.269 0)
(361.429 73.3501 0)
(363.248 72.8197 0)
(365.256 71.8996 0)
(366.446 71.2207 0)
(367.459 70.2333 0)
(368.411 69.7636 0)
(370.311 69.3269 0)
(373.446 68.9302 0)
(374.746 70.7296 0)
(210 -1.26629e-12 0)
(210 2.24717e-12 0)
(210 -6.58e-12 0)
(210 5.77765e-12 0)
(210 2.32601e-10 0)
(210 2.95738e-08 0)
(210 3.34448e-06 0)
(209.999 0.000333843 0)
(209.953 0.0150124 0)
(209.453 0.213655 0)
(207.696 1.0374 0)
(205.412 2.26121 0)
(203.918 3.05088 0)
(203.772 3.28872 0)
(203.789 3.3723 0)
(204.469 3.23779 0)
(205.464 2.90614 0)
(206.394 2.73707 0)
(207.138 2.59755 0)
(207.856 2.53211 0)
(208.558 2.47268 0)
(209.235 2.44031 0)
(209.889 2.45835 0)
(210.539 2.53095 0)
(211.206 2.63858 0)
(211.845 2.80446 0)
(212.3 3.12512 0)
(212.471 3.59978 0)
(212.516 4.13644 0)
(212.377 4.88089 0)
(212.344 5.58976 0)
(212.452 6.23512 0)
(212.626 6.82852 0)
(212.889 7.38505 0)
(213.134 7.98425 0)
(213.346 8.63898 0)
(213.54 9.34237 0)
(213.716 10.096 0)
(213.88 10.8964 0)
(214.024 11.7377 0)
(214.153 12.6125 0)
(214.273 13.5179 0)
(214.377 14.457 0)
(214.463 15.431 0)
(214.536 16.4393 0)
(214.6 17.4801 0)
(214.659 18.5542 0)
(214.709 19.6648 0)
(214.753 20.8142 0)
(214.793 22.002 0)
(214.836 23.225 0)
(214.885 24.4817 0)
(214.939 25.7733 0)
(214.998 27.1025 0)
(215.066 28.4708 0)
(215.142 29.8783 0)
(215.234 31.3229 0)
(215.342 32.8043 0)
(215.482 34.3227 0)
(215.652 35.8768 0)
(215.849 37.4676 0)
(216.096 39.0967 0)
(216.384 40.7641 0)
(216.714 42.4714 0)
(217.111 44.2192 0)
(217.556 46.0072 0)
(218.071 47.8352 0)
(218.675 49.7004 0)
(219.35 51.6 0)
(220.121 53.5328 0)
(221.007 55.4951 0)
(221.993 57.4821 0)
(223.1 59.4902 0)
(224.356 61.5109 0)
(225.732 63.5419 0)
(227.266 65.5803 0)
(228.972 67.618 0)
(230.816 69.6531 0)
(232.848 71.673 0)
(235.074 73.6662 0)
(237.475 75.6303 0)
(240.087 77.5502 0)
(242.904 79.4105 0)
(245.929 81.1828 0)
(249.14 82.8803 0)
(252.596 84.4194 0)
(256.181 85.892 0)
(260.003 87.1744 0)
(263.974 88.3646 0)
(268.15 89.356 0)
(272.455 90.1901 0)
(276.868 90.8109 0)
(281.241 91.3038 0)
(285.885 91.6577 0)
(290.129 91.8383 0)
(294.774 91.8459 0)
(299.116 91.727 0)
(303.314 91.5699 0)
(308.351 91.1458 0)
(312.649 90.5566 0)
(317.429 89.8552 0)
(321.711 89.1313 0)
(325.311 88.5457 0)
(329.1 87.7146 0)
(332.413 87.0353 0)
(335.908 86.2433 0)
(339.391 85.4176 0)
(342.748 84.4685 0)
(345.87 83.4447 0)
(348.621 82.5796 0)
(351.373 81.6551 0)
(353.721 81.0773 0)
(356.479 80.1722 0)
(358.507 79.5542 0)
(360.607 78.552 0)
(361.988 77.8255 0)
(363.361 76.8612 0)
(364.806 76.2856 0)
(367.132 75.7141 0)
(370.848 75.1957 0)
(372.291 77.2974 0)
(210 1.65731e-12 0)
(210 2.77006e-12 0)
(210 -3.68919e-12 0)
(210 2.27259e-12 0)
(210 4.53541e-11 0)
(210 7.54904e-09 0)
(210 9.54143e-07 0)
(209.999 0.000114205 0)
(209.975 0.00685239 0)
(209.642 0.128009 0)
(208.154 0.780724 0)
(205.756 1.98956 0)
(203.953 2.88603 0)
(203.665 3.20771 0)
(203.56 3.36524 0)
(204.105 3.30747 0)
(205.082 2.98785 0)
(206.023 2.79493 0)
(206.766 2.63528 0)
(207.481 2.56525 0)
(208.175 2.50956 0)
(208.845 2.48552 0)
(209.493 2.51411 0)
(210.135 2.59521 0)
(210.79 2.70708 0)
(211.427 2.86117 0)
(211.899 3.14737 0)
(212.079 3.58604 0)
(212.125 4.07994 0)
(211.954 4.80152 0)
(211.852 5.5176 0)
(211.926 6.15037 0)
(212.063 6.75609 0)
(212.288 7.31483 0)
(212.508 7.90432 0)
(212.696 8.5484 0)
(212.867 9.24205 0)
(213.021 9.98605 0)
(213.158 10.7765 0)
(213.274 11.6065 0)
(213.375 12.4683 0)
(213.465 13.3595 0)
(213.535 14.2834 0)
(213.586 15.2404 0)
(213.622 16.2305 0)
(213.648 17.2522 0)
(213.666 18.3059 0)
(213.674 19.395 0)
(213.673 20.5219 0)
(213.665 21.6877 0)
(213.656 22.8892 0)
(213.649 24.1256 0)
(213.646 25.396 0)
(213.646 26.7033 0)
(213.65 28.05 0)
(213.658 29.4359 0)
(213.677 30.8593 0)
(213.708 32.3203 0)
(213.765 33.8193 0)
(213.845 35.3549 0)
(213.947 36.9281 0)
(214.093 38.5413 0)
(214.27 40.1941 0)
(214.485 41.8888 0)
(214.757 43.6268 0)
(215.066 45.4081 0)
(215.439 47.2337 0)
(215.889 49.102 0)
(216.398 51.0098 0)
(216.995 52.9572 0)
(217.696 54.9409 0)
(218.486 56.957 0)
(219.39 59.0054 0)
(220.431 61.0811 0)
(221.579 63.1815 0)
(222.881 65.3008 0)
(224.342 67.4271 0)
(225.933 69.555 0)
(227.712 71.674 0)
(229.674 73.7753 0)
(231.8 75.8547 0)
(234.121 77.8983 0)
(236.631 79.8924 0)
(239.322 81.8239 0)
(242.198 83.6904 0)
(245.302 85.4479 0)
(248.538 87.1573 0)
(252.034 88.7056 0)
(255.641 90.2026 0)
(259.476 91.5027 0)
(263.486 92.6916 0)
(267.712 93.751 0)
(272.005 94.6114 0)
(276.53 95.3618 0)
(281.194 95.8891 0)
(285.73 96.2169 0)
(290.917 96.4094 0)
(295.417 96.2792 0)
(300.62 96.1151 0)
(305.272 95.7652 0)
(309.637 95.3903 0)
(314.164 94.7766 0)
(318.04 94.2436 0)
(322.331 93.539 0)
(326.525 92.73 0)
(330.633 91.7793 0)
(334.63 90.7521 0)
(338.224 89.7638 0)
(341.584 88.8102 0)
(344.716 87.9168 0)
(347.696 87.0505 0)
(350.379 86.3827 0)
(353.381 85.4475 0)
(355.734 84.7746 0)
(358.235 83.7415 0)
(359.758 83.1118 0)
(361.088 82.2413 0)
(362.391 81.85 0)
(364.704 81.3935 0)
(368.414 81.059 0)
(369.881 83.3307 0)
(210 2.26075e-12 0)
(210 -2.17645e-12 0)
(210 -1.22997e-12 0)
(210 -4.67262e-13 0)
(210 1.30949e-11 0)
(210 2.26121e-09 0)
(210 2.76011e-07 0)
(210 3.48103e-05 0)
(209.989 0.00279811 0)
(209.785 0.0700921 0)
(208.606 0.551739 0)
(206.229 1.68556 0)
(204.125 2.69224 0)
(203.572 3.12726 0)
(203.341 3.3504 0)
(203.74 3.34386 0)
(204.678 3.05815 0)
(205.626 2.83598 0)
(206.372 2.64495 0)
(207.085 2.55978 0)
(207.774 2.50699 0)
(208.438 2.49825 0)
(209.08 2.54143 0)
(209.711 2.63114 0)
(210.353 2.74631 0)
(210.983 2.88967 0)
(211.477 3.14063 0)
(211.674 3.54396 0)
(211.727 4.00022 0)
(211.534 4.6948 0)
(211.354 5.42324 0)
(211.383 6.05441 0)
(211.488 6.6688 0)
(211.672 7.22972 0)
(211.865 7.81006 0)
(212.031 8.44617 0)
(212.18 9.13295 0)
(212.31 9.86932 0)
(212.42 10.6509 0)
(212.506 11.4704 0)
(212.579 12.3202 0)
(212.637 13.199 0)
(212.672 14.1093 0)
(212.687 15.0512 0)
(212.686 16.0245 0)
(212.671 17.0287 0)
(212.647 18.0638 0)
(212.611 19.1333 0)
(212.565 20.239 0)
(212.508 21.3845 0)
(212.447 22.5671 0)
(212.383 23.7859 0)
(212.322 25.0367 0)
(212.263 26.3243 0)
(212.202 27.6511 0)
(212.144 29.0173 0)
(212.091 30.4218 0)
(212.046 31.8637 0)
(212.023 33.3446 0)
(212.015 34.863 0)
(212.027 36.4181 0)
(212.075 38.0141 0)
(212.147 39.6495 0)
(212.254 41.327 0)
(212.408 43.0485 0)
(212.591 44.8137 0)
(212.832 46.6249 0)
(213.139 48.4802 0)
(213.493 50.3765 0)
(213.929 52.3152 0)
(214.456 54.2938 0)
(215.057 56.3092 0)
(215.763 58.3626 0)
(216.587 60.4488 0)
(217.505 62.5632 0)
(218.566 64.7012 0)
(219.77 66.8554 0)
(221.092 69.0267 0)
(222.593 71.2129 0)
(224.256 73.4086 0)
(226.07 75.6067 0)
(228.077 77.7928 0)
(230.273 79.9536 0)
(232.652 82.0809 0)
(235.248 84.161 0)
(238.072 86.1672 0)
(241.067 88.125 0)
(244.332 89.9591 0)
(247.733 91.7526 0)
(251.404 93.3533 0)
(255.192 94.8758 0)
(259.191 96.1898 0)
(263.377 97.4158 0)
(267.625 98.3857 0)
(272.163 99.3186 0)
(276.515 99.9031 0)
(281.271 100.415 0)
(285.83 100.685 0)
(290.326 100.905 0)
(295.098 100.951 0)
(299.267 100.909 0)
(303.973 100.661 0)
(308.551 100.297 0)
(313.138 99.8322 0)
(317.895 99.2106 0)
(321.879 98.7029 0)
(325.965 98.043 0)
(329.433 97.4676 0)
(332.916 96.7195 0)
(336.415 95.8369 0)
(339.663 94.9556 0)
(342.806 94.1312 0)
(345.943 93.1973 0)
(348.524 92.4342 0)
(351.203 91.3488 0)
(353.018 90.5553 0)
(354.715 89.5714 0)
(356.336 89.1764 0)
(358.889 88.7527 0)
(362.866 88.3318 0)
(364.295 90.756 0)
(210 -5.92336e-12 0)
(210 -3.02167e-12 0)
(210 -4.65504e-12 0)
(210 2.52383e-12 0)
(210 3.84028e-12 0)
(210 3.71394e-10 0)
(210 5.53891e-08 0)
(210 8.1975e-06 0)
(209.995 0.000976695 0)
(209.883 0.034065 0)
(209.016 0.357728 0)
(206.776 1.35479 0)
(204.365 2.45314 0)
(203.49 3.05224 0)
(203.136 3.27122 0)
(203.402 3.34767 0)
(204.263 3.12828 0)
(205.204 2.87647 0)
(205.957 2.6552 0)
(206.676 2.57681 0)
(207.366 2.54214 0)
(208.026 2.54746 0)
(208.661 2.59665 0)
(209.281 2.68696 0)
(209.906 2.80022 0)
(210.524 2.93201 0)
(211.031 3.14598 0)
(211.249 3.50921 0)
(211.306 3.92918 0)
(211.104 4.58385 0)
(210.849 5.31921 0)
(210.82 5.95665 0)
(210.899 6.57331 0)
(211.041 7.13683 0)
(211.207 7.71162 0)
(211.352 8.33994 0)
(211.479 9.01669 0)
(211.584 9.74051 0)
(211.666 10.5074 0)
(211.725 11.3108 0)
(211.772 12.1445 0)
(211.797 13.0074 0)
(211.799 13.9004 0)
(211.78 14.8228 0)
(211.743 15.7748 0)
(211.689 16.7576 0)
(211.624 17.7698 0)
(211.547 18.8144 0)
(211.457 19.8969 0)
(211.354 21.0185 0)
(211.243 22.1779 0)
(211.129 23.371 0)
(211.014 24.5985 0)
(210.895 25.8622 0)
(210.775 27.1636 0)
(210.654 28.5045 0)
(210.533 29.8845 0)
(210.417 31.3004 0)
(210.316 32.7552 0)
(210.222 34.2508 0)
(210.148 35.7818 0)
(210.101 37.3556 0)
(210.07 38.9695 0)
(210.071 40.6263 0)
(210.108 42.3285 0)
(210.166 44.0758 0)
(210.276 45.8722 0)
(210.439 47.7161 0)
(210.64 49.6047 0)
(210.914 51.5414 0)
(211.266 53.5236 0)
(211.68 55.5479 0)
(212.191 57.6167 0)
(212.807 59.7249 0)
(213.506 61.8695 0)
(214.344 64.0504 0)
(215.306 66.2628 0)
(216.376 68.5065 0)
(217.618 70.7765 0)
(219.003 73.0609 0)
(220.533 75.3481 0)
(222.252 77.626 0)
(224.149 79.8863 0)
(226.218 82.1264 0)
(228.499 84.3336 0)
(230.975 86.4954 0)
(233.623 88.6186 0)
(236.513 90.6632 0)
(239.544 92.6717 0)
(242.851 94.5406 0)
(246.27 96.3759 0)
(249.981 98.0085 0)
(253.797 99.5949 0)
(257.848 101.002 0)
(262.045 102.31 0)
(266.427 103.383 0)
(270.958 104.299 0)
(275.645 105.064 0)
(280.184 105.628 0)
(284.991 106.106 0)
(289.755 106.331 0)
(294.589 106.364 0)
(299.521 106.231 0)
(303.855 106.082 0)
(308.535 105.648 0)
(312.222 105.384 0)
(316.241 104.923 0)
(319.96 104.621 0)
(323.999 104.081 0)
(327.786 103.407 0)
(331.54 102.523 0)
(334.949 101.725 0)
(338.391 100.864 0)
(341.273 100.298 0)
(344.433 99.3994 0)
(346.7 98.6077 0)
(348.769 97.4632 0)
(350.54 96.8285 0)
(353.302 96.2724 0)
(357.886 95.8221 0)
(359.414 98.7538 0)
(210 -1.20491e-11 0)
(210 -5.70201e-12 0)
(210 -3.44662e-12 0)
(210 -5.20597e-12 0)
(210 -3.48106e-12 0)
(210 6.30749e-11 0)
(210 1.01185e-08 0)
(210 1.7377e-06 0)
(209.998 0.00028473 0)
(209.943 0.014466 0)
(209.363 0.210111 0)
(207.388 1.02216 0)
(204.787 2.17848 0)
(203.486 2.91383 0)
(202.937 3.16506 0)
(203.108 3.35206 0)
(203.837 3.1728 0)
(204.749 2.88152 0)
(205.521 2.63658 0)
(206.254 2.57796 0)
(206.946 2.56433 0)
(207.599 2.57794 0)
(208.223 2.62654 0)
(208.83 2.71295 0)
(209.438 2.82254 0)
(210.041 2.94472 0)
(210.562 3.12189 0)
(210.812 3.44187 0)
(210.876 3.8322 0)
(210.689 4.43324 0)
(210.36 5.173 0)
(210.249 5.82933 0)
(210.303 6.44006 0)
(210.401 7.01666 0)
(210.539 7.59099 0)
(210.661 8.21423 0)
(210.762 8.88336 0)
(210.841 9.59656 0)
(210.895 10.3503 0)
(210.928 11.1391 0)
(210.945 11.9585 0)
(210.935 12.8063 0)
(210.904 13.681 0)
(210.849 14.5862 0)
(210.774 15.5196 0)
(210.681 16.4808 0)
(210.575 17.4708 0)
(210.455 18.4931 0)
(210.321 19.5522 0)
(210.171 20.6512 0)
(210.01 21.7884 0)
(209.843 22.9606 0)
(209.671 24.1662 0)
(209.496 25.4068 0)
(209.315 26.685 0)
(209.13 28.0015 0)
(208.943 29.3563 0)
(208.758 30.7489 0)
(208.581 32.1792 0)
(208.4 33.6569 0)
(208.244 35.1616 0)
(208.103 36.7109 0)
(207.975 38.3011 0)
(207.875 39.9337 0)
(207.801 41.6122 0)
(207.744 43.3347 0)
(207.733 45.107 0)
(207.762 46.927 0)
(207.821 48.7922 0)
(207.947 50.7072 0)
(208.138 52.6683 0)
(208.378 54.6733 0)
(208.708 56.7265 0)
(209.125 58.824 0)
(209.613 60.9644 0)
(210.227 63.1494 0)
(210.941 65.3716 0)
(211.753 67.6293 0)
(212.726 69.9194 0)
(213.823 72.2333 0)
(215.059 74.5674 0)
(216.475 76.9193 0)
(218.051 79.2859 0)
(219.793 81.6669 0)
(221.744 84.0492 0)
(223.879 86.4203 0)
(226.206 88.7705 0)
(228.772 91.0691 0)
(231.509 93.3281 0)
(234.51 95.4846 0)
(237.653 97.6003 0)
(241.101 99.5368 0)
(244.644 101.437 0)
(248.459 103.118 0)
(252.39 104.751 0)
(256.523 106.189 0)
(260.811 107.448 0)
(265.288 108.536 0)
(269.843 109.416 0)
(274.481 110.173 0)
(279.458 110.847 0)
(283.995 111.254 0)
(289.062 111.496 0)
(293.327 111.604 0)
(298.156 111.609 0)
(302.843 111.436 0)
(307.82 111.032 0)
(312.46 110.516 0)
(317.143 109.897 0)
(321.169 109.344 0)
(325.325 108.543 0)
(328.869 107.928 0)
(332.803 107.078 0)
(335.963 106.602 0)
(339.48 105.814 0)
(341.972 105.195 0)
(344.328 104.135 0)
(346.306 103.418 0)
(349.15 102.857 0)
(353.822 102.54 0)
(355.379 105.454 0)
(210 -1.0319e-11 0)
(210 -3.20672e-13 0)
(210 -4.6539e-12 0)
(210 -1.11727e-11 0)
(210 -3.85977e-12 0)
(210 3.97669e-12 0)
(210 4.02471e-10 0)
(210 2.30221e-07 0)
(209.999 6.3567e-05 0)
(209.975 0.00519829 0)
(209.627 0.108996 0)
(208.022 0.711105 0)
(205.309 1.83917 0)
(203.543 2.73031 0)
(202.755 3.08405 0)
(202.84 3.3008 0)
(203.402 3.17523 0)
(204.27 2.88838 0)
(205.072 2.64431 0)
(205.828 2.61304 0)
(206.52 2.60883 0)
(207.159 2.61858 0)
(207.77 2.66036 0)
(208.365 2.73886 0)
(208.956 2.84123 0)
(209.543 2.95329 0)
(210.067 3.10129 0)
(210.35 3.3827 0)
(210.419 3.75346 0)
(210.255 4.29683 0)
(209.859 5.03649 0)
(209.66 5.71792 0)
(209.681 6.32857 0)
(209.744 6.91205 0)
(209.855 7.48142 0)
(209.955 8.09139 0)
(210.029 8.7445 0)
(210.083 9.44011 0)
(210.112 10.1766 0)
(210.121 10.9451 0)
(210.107 11.7436 0)
(210.062 12.5739 0)
(209.996 13.4297 0)
(209.909 14.3115 0)
(209.8 15.2203 0)
(209.669 16.1569 0)
(209.523 17.1223 0)
(209.363 18.1193 0)
(209.187 19.1522 0)
(208.993 20.2245 0)
(208.785 21.3352 0)
(208.568 22.4809 0)
(208.346 23.6593 0)
(208.117 24.8718 0)
(207.88 26.1207 0)
(207.634 27.4078 0)
(207.384 28.7335 0)
(207.131 30.0978 0)
(206.878 31.5018 0)
(206.629 32.9412 0)
(206.39 34.4203 0)
(206.158 35.9418 0)
(205.933 37.5054 0)
(205.735 39.1071 0)
(205.552 40.7571 0)
(205.384 42.4511 0)
(205.252 44.1974 0)
(205.148 45.9933 0)
(205.067 47.8362 0)
(205.045 49.7331 0)
(205.073 51.6789 0)
(205.139 53.6728 0)
(205.289 55.7211 0)
(205.507 57.8183 0)
(205.787 59.9634 0)
(206.185 62.1587 0)
(206.664 64.3954 0)
(207.239 66.6752 0)
(207.964 68.9996 0)
(208.791 71.3627 0)
(209.75 73.7641 0)
(210.874 76.1994 0)
(212.137 78.6593 0)
(213.559 81.1373 0)
(215.178 83.6179 0)
(216.956 86.0891 0)
(218.924 88.5417 0)
(221.113 90.9624 0)
(223.472 93.3599 0)
(226.072 95.7058 0)
(228.838 98.021 0)
(231.896 100.221 0)
(235.074 102.397 0)
(238.573 104.406 0)
(242.156 106.396 0)
(246.011 108.195 0)
(250.031 109.927 0)
(254.29 111.425 0)
(258.774 112.883 0)
(263.194 113.991 0)
(267.957 115.092 0)
(272.329 115.838 0)
(277.178 116.513 0)
(281.88 116.97 0)
(286.607 117.33 0)
(291.793 117.59 0)
(296.227 117.683 0)
(301.017 117.602 0)
(305.178 117.479 0)
(309.07 117.395 0)
(313.241 117.023 0)
(316.815 116.707 0)
(321.192 115.995 0)
(324.714 115.543 0)
(328.755 114.787 0)
(331.635 114.182 0)
(334.24 113.161 0)
(336.384 112.297 0)
(339.267 111.57 0)
(344.632 110.857 0)
(346.15 114.329 0)
(210 -6.38647e-12 0)
(210 5.77657e-12 0)
(210 -5.61811e-12 0)
(210 -1.03605e-12 0)
(210 -2.55346e-12 0)
(210 3.64387e-13 0)
(210 -3.50961e-10 0)
(210 -7.61312e-09 0)
(210 8.64916e-06 0)
(209.991 0.001522 0)
(209.806 0.0489326 0)
(208.62 0.447294 0)
(205.987 1.47191 0)
(203.768 2.49503 0)
(202.639 2.98175 0)
(202.63 3.18014 0)
(202.98 3.12698 0)
(203.774 2.89768 0)
(204.612 2.66787 0)
(205.392 2.64218 0)
(206.075 2.62758 0)
(206.699 2.62922 0)
(207.298 2.66745 0)
(207.884 2.7405 0)
(208.46 2.83377 0)
(209.029 2.9301 0)
(209.556 3.04616 0)
(209.88 3.28578 0)
(209.962 3.63437 0)
(209.844 4.11808 0)
(209.403 4.84382 0)
(209.09 5.55917 0)
(209.062 6.17748 0)
(209.09 6.77091 0)
(209.169 7.33987 0)
(209.242 7.93974 0)
(209.285 8.58148 0)
(209.311 9.26466 0)
(209.315 9.98558 0)
(209.305 10.7288 0)
(209.248 11.5168 0)
(209.171 12.3253 0)
(209.072 13.1591 0)
(208.95 14.0186 0)
(208.805 14.9046 0)
(208.636 15.818 0)
(208.45 16.76 0)
(208.248 17.7328 0)
(208.03 18.7406 0)
(207.793 19.7871 0)
(207.538 20.8722 0)
(207.27 21.9926 0)
(206.996 23.1455 0)
(206.712 24.3315 0)
(206.419 25.5529 0)
(206.114 26.8118 0)
(205.8 28.1088 0)
(205.479 29.4443 0)
(205.155 30.8184 0)
(204.83 32.2317 0)
(204.507 33.684 0)
(204.19 35.1752 0)
(203.882 36.7044 0)
(203.589 38.2764 0)
(203.298 39.8983 0)
(203.027 41.559 0)
(202.782 43.2698 0)
(202.553 45.0315 0)
(202.346 46.8393 0)
(202.189 48.703 0)
(202.066 50.6154 0)
(201.976 52.5758 0)
(201.96 54.5929 0)
(201.995 56.6588 0)
(202.085 58.7758 0)
(202.279 60.9487 0)
(202.531 63.1688 0)
(202.873 65.4417 0)
(203.347 67.769 0)
(203.896 70.1418 0)
(204.571 72.5614 0)
(205.391 75.0219 0)
(206.334 77.5145 0)
(207.432 80.0377 0)
(208.715 82.5837 0)
(210.14 85.1464 0)
(211.76 87.7213 0)
(213.584 90.3005 0)
(215.579 92.8831 0)
(217.801 95.4465 0)
(220.205 97.9883 0)
(222.869 100.463 0)
(225.68 102.915 0)
(228.813 105.242 0)
(232.037 107.551 0)
(235.588 109.684 0)
(239.219 111.796 0)
(243.12 113.696 0)
(247.147 115.508 0)
(251.418 117.109 0)
(255.811 118.527 0)
(260.468 119.837 0)
(265.207 120.951 0)
(270.234 121.969 0)
(274.796 122.651 0)
(279.978 123.306 0)
(284.299 123.684 0)
(289.284 123.885 0)
(293.703 124.005 0)
(298.207 124.05 0)
(302.809 123.99 0)
(306.888 123.868 0)
(311.88 123.453 0)
(315.842 123.124 0)
(320.504 122.479 0)
(323.779 121.953 0)
(326.584 121.103 0)
(328.899 120.525 0)
(332.1 120.066 0)
(337.835 119.727 0)
(339.286 124.004 0)
(210 -3.16793e-12 0)
(210 3.09768e-12 0)
(210 1.83539e-14 0)
(210 -4.14965e-13 0)
(210 -3.62646e-12 0)
(210 -1.41538e-12 0)
(210 -2.02171e-10 0)
(210 -1.80754e-08 0)
(210 -5.53075e-08 0)
(209.997 0.000333032 0)
(209.912 0.0184253 0)
(209.128 0.248706 0)
(206.765 1.09163 0)
(204.126 2.20119 0)
(202.581 2.82515 0)
(202.455 3.03523 0)
(202.583 3.07182 0)
(203.271 2.93285 0)
(204.138 2.70511 0)
(204.941 2.66398 0)
(205.614 2.63128 0)
(206.223 2.62685 0)
(206.814 2.66219 0)
(207.392 2.72805 0)
(207.952 2.8126 0)
(208.502 2.90129 0)
(209.022 3.0034 0)
(209.381 3.21392 0)
(209.481 3.54547 0)
(209.408 3.97405 0)
(208.948 4.67351 0)
(208.517 5.42284 0)
(208.422 6.05015 0)
(208.419 6.6437 0)
(208.47 7.201 0)
(208.515 7.78525 0)
(208.527 8.41176 0)
(208.529 9.07599 0)
(208.518 9.76799 0)
(208.468 10.4987 0)
(208.385 11.2577 0)
(208.275 12.0428 0)
(208.143 12.8527 0)
(207.988 13.6878 0)
(207.807 14.5484 0)
(207.604 15.4358 0)
(207.38 16.3515 0)
(207.139 17.2975 0)
(206.882 18.2774 0)
(206.604 19.295 0)
(206.306 20.3509 0)
(205.992 21.4421 0)
(205.668 22.5652 0)
(205.334 23.72 0)
(204.988 24.909 0)
(204.628 26.1346 0)
(204.254 27.3981 0)
(203.87 28.6999 0)
(203.479 30.0399 0)
(203.082 31.418 0)
(202.684 32.8346 0)
(202.286 34.2904 0)
(201.892 35.7866 0)
(201.503 37.3248 0)
(201.122 38.9043 0)
(200.751 40.5292 0)
(200.395 42.2027 0)
(200.041 43.932 0)
(199.712 45.7034 0)
(199.418 47.5309 0)
(199.143 49.4118 0)
(198.9 51.3412 0)
(198.718 53.3326 0)
(198.569 55.3748 0)
(198.472 57.4728 0)
(198.462 59.6314 0)
(198.491 61.8396 0)
(198.611 64.1062 0)
(198.844 66.4298 0)
(199.135 68.8009 0)
(199.551 71.2268 0)
(200.091 73.7026 0)
(200.736 76.2232 0)
(201.531 78.7919 0)
(202.485 81.4027 0)
(203.561 84.0492 0)
(204.826 86.7288 0)
(206.272 89.4315 0)
(207.884 92.1494 0)
(209.712 94.8685 0)
(211.725 97.5843 0)
(213.973 100.272 0)
(216.403 102.943 0)
(219.136 105.534 0)
(221.992 108.11 0)
(225.182 110.562 0)
(228.464 113 0)
(232.082 115.246 0)
(235.826 117.436 0)
(239.846 119.416 0)
(244.039 121.329 0)
(248.389 123.056 0)
(252.844 124.618 0)
(257.49 126.046 0)
(262.031 127.154 0)
(266.757 128.211 0)
(271.742 129.172 0)
(276.567 129.832 0)
(281.966 130.413 0)
(286.914 130.717 0)
(292.028 130.938 0)
(296.334 131.041 0)
(301.06 130.991 0)
(305.182 130.864 0)
(309.847 130.502 0)
(313.777 130.065 0)
(317.23 129.355 0)
(319.909 128.869 0)
(323.113 128.535 0)
(328.48 128.391 0)
(329.908 132.163 0)
(210 3.9052e-12 0)
(210 7.35963e-12 0)
(210 -2.65662e-12 0)
(210 -9.44473e-12 0)
(210 -7.37601e-12 0)
(210 -6.12663e-12 0)
(210 -7.32233e-11 0)
(210 -7.25459e-09 0)
(210 -4.86738e-07 0)
(209.999 3.99297e-05 0)
(209.965 0.00557883 0)
(209.51 0.119453 0)
(207.581 0.737627 0)
(204.686 1.84651 0)
(202.65 2.57854 0)
(202.319 2.89299 0)
(202.24 3.00599 0)
(202.773 2.94082 0)
(203.642 2.70961 0)
(204.47 2.64931 0)
(205.137 2.60928 0)
(205.737 2.60418 0)
(206.322 2.63176 0)
(206.894 2.68044 0)
(207.443 2.74792 0)
(207.975 2.82717 0)
(208.488 2.92472 0)
(208.881 3.11316 0)
(209.012 3.42906 0)
(208.983 3.81478 0)
(208.543 4.47187 0)
(207.988 5.24598 0)
(207.786 5.89094 0)
(207.753 6.47343 0)
(207.772 7.02843 0)
(207.787 7.60331 0)
(207.771 8.21378 0)
(207.752 8.85494 0)
(207.704 9.5307 0)
(207.628 10.2348 0)
(207.515 10.9712 0)
(207.373 11.7338 0)
(207.206 12.5209 0)
(207.017 13.3321 0)
(206.803 14.1678 0)
(206.563 15.03 0)
(206.301 15.9204 0)
(206.022 16.841 0)
(205.725 17.7944 0)
(205.407 18.7842 0)
(205.066 19.8116 0)
(204.705 20.8742 0)
(204.332 21.9682 0)
(203.946 23.0929 0)
(203.547 24.2504 0)
(203.131 25.4437 0)
(202.698 26.6743 0)
(202.251 27.9428 0)
(201.793 29.2492 0)
(201.325 30.5935 0)
(200.852 31.9757 0)
(200.376 33.3961 0)
(199.898 34.8556 0)
(199.422 36.3553 0)
(198.949 37.8972 0)
(198.481 39.4837 0)
(198.017 41.1177 0)
(197.562 42.7975 0)
(197.12 44.5265 0)
(196.702 46.307 0)
(196.281 48.1509 0)
(195.904 50.0301 0)
(195.568 51.9732 0)
(195.252 53.9689 0)
(194.988 56.022 0)
(194.789 58.1374 0)
(194.615 60.3027 0)
(194.53 62.5332 0)
(194.532 64.8242 0)
(194.574 67.1691 0)
(194.736 69.5818 0)
(194.99 72.0544 0)
(195.334 74.584 0)
(195.817 77.1738 0)
(196.434 79.8147 0)
(197.159 82.5004 0)
(198.068 85.2321 0)
(199.132 87.9985 0)
(200.357 90.7934 0)
(201.785 93.6119 0)
(203.387 96.4479 0)
(205.199 99.2874 0)
(207.201 102.129 0)
(209.469 104.94 0)
(211.882 107.74 0)
(214.614 110.462 0)
(217.46 113.17 0)
(220.645 115.755 0)
(223.926 118.325 0)
(227.532 120.725 0)
(231.263 123.072 0)
(235.267 125.238 0)
(239.451 127.306 0)
(243.845 129.128 0)
(248.497 130.914 0)
(253.004 132.261 0)
(257.994 133.808 0)
(262.539 134.873 0)
(267.762 135.956 0)
(272.31 136.696 0)
(277.093 137.343 0)
(281.522 137.901 0)
(285.887 138.396 0)
(290.414 138.769 0)
(295.098 138.961 0)
(299.845 138.847 0)
(303.703 138.308 0)
(306.766 137.768 0)
(310.33 137.488 0)
(316.686 137.455 0)
(317.966 142.243 0)
(210 8.20279e-12 0)
(210 -2.15229e-12 0)
(210 -1.02272e-11 0)
(210 -9.0523e-12 0)
(210 -6.2716e-12 0)
(210 4.52715e-12 0)
(210 -2.06083e-11 0)
(210 -2.12284e-09 0)
(210 -2.09053e-07 0)
(210 -5.67935e-06 0)
(209.988 0.00123703 0)
(209.758 0.0480791 0)
(208.345 0.442788 0)
(205.443 1.4477 0)
(202.89 2.28836 0)
(202.19 2.77026 0)
(201.935 2.9067 0)
(202.289 2.89456 0)
(203.133 2.69838 0)
(203.986 2.63407 0)
(204.65 2.579 0)
(205.244 2.56014 0)
(205.824 2.57413 0)
(206.39 2.61435 0)
(206.928 2.68406 0)
(207.444 2.77222 0)
(207.947 2.8759 0)
(208.364 3.04636 0)
(208.538 3.33832 0)
(208.538 3.69075 0)
(208.149 4.28568 0)
(207.485 5.06128 0)
(207.15 5.72399 0)
(207.072 6.29654 0)
(207.064 6.84725 0)
(207.05 7.40884 0)
(207.023 7.98846 0)
(206.963 8.61218 0)
(206.889 9.26085 0)
(206.788 9.94046 0)
(206.647 10.6517 0)
(206.473 11.3902 0)
(206.275 12.1528 0)
(206.053 12.9387 0)
(205.806 13.7486 0)
(205.532 14.5842 0)
(205.235 15.4479 0)
(204.919 16.3414 0)
(204.585 17.2667 0)
(204.229 18.2268 0)
(203.848 19.2232 0)
(203.445 20.2542 0)
(203.025 21.316 0)
(202.591 22.4072 0)
(202.142 23.5295 0)
(201.675 24.6862 0)
(201.187 25.8792 0)
(200.682 27.1095 0)
(200.162 28.3769 0)
(199.63 29.6815 0)
(199.087 31.0232 0)
(198.538 32.4025 0)
(197.983 33.82 0)
(197.425 35.2767 0)
(196.866 36.7742 0)
(196.305 38.3148 0)
(195.744 39.9012 0)
(195.183 41.5359 0)
(194.628 43.2204 0)
(194.08 44.9571 0)
(193.544 46.7416 0)
(193.03 48.5807 0)
(192.539 50.4776 0)
(192.052 52.4351 0)
(191.626 54.4426 0)
(191.235 56.5164 0)
(190.866 58.6423 0)
(190.581 60.8411 0)
(190.353 63.1002 0)
(190.161 65.4153 0)
(190.082 67.8036 0)
(190.066 70.2501 0)
(190.134 72.7588 0)
(190.331 75.3337 0)
(190.631 77.9651 0)
(191.03 80.6528 0)
(191.6 83.4032 0)
(192.292 86.2034 0)
(193.137 89.0528 0)
(194.166 91.949 0)
(195.351 94.8836 0)
(196.726 97.8494 0)
(198.297 100.84 0)
(200.102 103.829 0)
(202.076 106.819 0)
(204.347 109.779 0)
(206.757 112.747 0)
(209.495 115.657 0)
(212.358 118.564 0)
(215.59 121.338 0)
(218.945 124.08 0)
(222.625 126.64 0)
(226.424 129.149 0)
(230.497 131.453 0)
(234.734 133.664 0)
(239.225 135.709 0)
(243.807 137.594 0)
(248.523 139.316 0)
(253.396 140.901 0)
(258.179 142.125 0)
(263.455 143.312 0)
(268.486 144.136 0)
(273.764 144.948 0)
(279.04 145.572 0)
(283.833 145.951 0)
(289.293 146.217 0)
(293.603 145.984 0)
(297.184 145.557 0)
(300.932 145.394 0)
(306.989 145.73 0)
(308.137 150.251 0)
(210 4.87041e-12 0)
(210 -5.27956e-12 0)
(210 6.62795e-13 0)
(210 -4.10976e-12 0)
(210 8.92722e-13 0)
(210 9.01863e-12 0)
(210 -5.83083e-12 0)
(210 -5.2288e-10 0)
(210 -6.10182e-08 0)
(210 -4.1797e-06 0)
(209.997 0.000136038 0)