/*--------------------------------*- C++ -*----------------------------------*\
| =========                 |                                                 |
| \\      /  F ield         | OpenFOAM: The Open Source CFD Toolbox           |
|  \\    /   O peration     | Version:  2412                                  |
|   \\  /    A nd           | Website:  www.openfoam.com                      |
|    \\/     M anipulation  |                                                 |
\*---------------------------------------------------------------------------*/
FoamFile
{
    version     2.0;
    format      ascii;
    arch        "LSB;label=32;scalar=64";
    class       volVectorField;
    location    "0.016";
    object      U;
}
// * * * * * * * * * * * * * * * * * * * * * * * * * * * * * * * * * * * * * //

dimensions      [0 1 -1 0 0 0 0];

internalField   nonuniform List<vector> 
78650
(
(210 -2.23759e-12 0)
(210 4.50919e-12 0)
(210 -1.83767e-12 0)
(210 9.17728e-12 0)
(210 7.50322e-12 0)
(210 -5.60327e-12 0)
(210 -2.4635e-12 0)
(210 4.12636e-12 0)
(210 1.64714e-12 0)
(210 2.63048e-12 0)
(210 6.44428e-13 0)
(210 6.29998e-12 0)
(210 6.65991e-12 0)
(210 6.68845e-12 0)
(210 8.96127e-13 0)
(210 -9.83012e-12 0)
(210 -7.18053e-12 0)
(210 -7.74267e-12 0)
(210 -6.56788e-12 0)
(210 3.351e-12 0)
(210 1.85038e-10 0)
(210 2.34173e-08 0)
(210 2.43541e-06 0)
(209.999 0.00022525 0)
(209.964 0.0102706 0)
(209.549 0.159874 0)
(207.937 0.863781 0)
(205.548 2.05161 0)
(203.839 2.89234 0)
(203.548 3.17293 0)
(203.477 3.3186 0)
(204.048 3.27602 0)
(205.023 2.96109 0)
(205.977 2.76895 0)
(206.729 2.61681 0)
(207.446 2.57399 0)
(208.137 2.53337 0)
(208.799 2.52239 0)
(209.442 2.54673 0)
(210.085 2.61653 0)
(210.743 2.71774 0)
(211.347 2.89678 0)
(211.726 3.24858 0)
(211.848 3.73967 0)
(211.839 4.32323 0)
(211.702 5.07213 0)
(211.72 5.75982 0)
(211.836 6.40393 0)
(212.055 6.97879 0)
(212.323 7.54127 0)
(212.548 8.16487 0)
(212.734 8.84748 0)
(212.922 9.5695 0)
(213.089 10.3429 0)
(213.182 11.18 0)
(213.216 12.067 0)
(213.218 13.035 0)
(213.248 14.0101 0)
(213.301 14.9979 0)
(213.385 16.0016 0)
(213.47 17.046 0)
(213.54 18.1413 0)
(213.6 19.2865 0)
(213.654 20.4792 0)
(213.709 21.7187 0)
(213.762 23.0042 0)
(213.816 24.3342 0)
(213.881 25.7062 0)
(213.96 27.1185 0)
(214.054 28.5726 0)
(214.173 30.0729 0)
(214.313 31.6227 0)
(214.476 33.2243 0)
(214.68 34.8788 0)
(214.923 36.5859 0)
(215.215 38.3455 0)
(215.576 40.1577 0)
(216 42.0226 0)
(216.511 43.9415 0)
(217.113 45.9148 0)
(217.811 47.9423 0)
(218.636 50.0213 0)
(219.577 52.1516 0)
(220.683 54.3262 0)
(221.93 56.5442 0)
(223.382 58.7912 0)
(225.011 61.0656 0)
(226.87 63.3551 0)
(228.964 65.6476 0)
(231.299 67.9289 0)
(233.927 70.172 0)
(236.813 72.399 0)
(240.051 74.5716 0)
(243.582 76.6853 0)
(247.465 78.6794 0)
(251.718 80.4721 0)
(256.267 82.1393 0)
(261.227 83.5504 0)
(266.59 84.8014 0)
(272.329 85.7322 0)
(278.382 86.3528 0)
(284.581 86.6107 0)
(290.923 86.5542 0)
(297.586 86.063 0)
(304.384 85.2035 0)
(310.225 84.5797 0)
(316.696 83.472 0)
(322.439 82.2382 0)
(329.238 80.4491 0)
(335.07 78.6194 0)
(340.054 77.2598 0)
(345.194 75.6687 0)
(349.397 74.4738 0)
(353.515 72.8854 0)
(357.131 71.0745 0)
(359.887 69.1773 0)
(362.119 67.0557 0)
(364.197 65.7991 0)
(367.842 65.0425 0)
(373.823 64.1025 0)
(376.057 67.5045 0)
(210 9.36177e-13 0)
(210 3.45333e-12 0)
(210 -6.41261e-13 0)
(210 8.12591e-12 0)
(210 4.23842e-12 0)
(210 -7.44343e-13 0)
(210 7.28443e-12 0)
(210 1.1534e-12 0)
(210 -7.08262e-12 0)
(210 -5.6706e-12 0)
(210 1.44859e-12 0)
(210 8.01494e-12 0)
(210 2.80294e-12 0)
(210 3.34304e-12 0)
(210 -1.94008e-12 0)
(210 -6.94699e-12 0)
(210 -6.099e-12 0)
(210 -4.26055e-12 0)
(210 -4.38938e-12 0)
(210 3.76567e-12 0)
(210 2.79423e-11 0)
(210 4.21023e-09 0)
(210 5.36484e-07 0)
(210 7.07038e-05 0)
(209.981 0.00466652 0)
(209.702 0.0951889 0)
(208.353 0.640451 0)
(205.935 1.77693 0)
(203.966 2.72057 0)
(203.485 3.09072 0)
(203.309 3.30544 0)
(203.745 3.31822 0)
(204.68 3.02825 0)
(205.642 2.82077 0)
(206.399 2.65134 0)
(207.117 2.60282 0)
(207.801 2.56147 0)
(208.456 2.55522 0)
(209.093 2.58754 0)
(209.731 2.6652 0)
(210.384 2.77087 0)
(210.994 2.93442 0)
(211.397 3.25203 0)
(211.53 3.71074 0)
(211.53 4.24585 0)
(211.353 4.98209 0)
(211.318 5.67334 0)
(211.396 6.32186 0)
(211.568 6.89571 0)
(211.812 7.44703 0)
(212.018 8.05808 0)
(212.182 8.72946 0)
(212.348 9.4396 0)
(212.494 10.1978 0)
(212.571 11.0135 0)
(212.587 11.8808 0)
(212.557 12.8351 0)
(212.557 13.7985 0)
(212.574 14.7776 0)
(212.612 15.7672 0)
(212.66 16.7912 0)
(212.695 17.8661 0)
(212.716 18.9912 0)
(212.73 20.1628 0)
(212.739 21.3805 0)
(212.744 22.6433 0)
(212.746 23.9503 0)
(212.753 25.2997 0)
(212.769 26.6903 0)
(212.796 28.1214 0)
(212.845 29.5983 0)
(212.908 31.1241 0)
(212.989 32.7011 0)
(213.103 34.3322 0)
(213.247 36.0167 0)
(213.432 37.7554 0)
(213.675 39.5496 0)
(213.97 41.3989 0)
(214.342 43.3058 0)
(214.791 45.271 0)
(215.325 47.2953 0)
(215.97 49.3782 0)
(216.719 51.5199 0)
(217.616 53.7157 0)
(218.639 55.9646 0)
(219.853 58.2577 0)
(221.229 60.5947 0)
(222.824 62.9657 0)
(224.639 65.3606 0)
(226.686 67.7698 0)
(229.014 70.1776 0)
(231.596 72.5905 0)
(234.517 74.9552 0)
(237.706 77.259 0)
(241.239 79.449 0)
(245.117 81.4919 0)
(249.275 83.4679 0)
(253.855 85.2029 0)
(258.663 86.8214 0)
(263.85 88.1147 0)
(269.451 89.225 0)
(275.219 89.9454 0)
(281.454 90.457 0)
(287.639 90.6621 0)
(294.293 90.4881 0)
(300.295 90.0387 0)
(307.09 89.3622 0)
(313.31 88.4576 0)
(319.563 87.3391 0)
(326.708 85.656 0)
(332.561 83.8127 0)
(338.729 81.7681 0)
(343.714 80.3458 0)
(348.761 78.7934 0)
(353.115 77.2603 0)
(356.576 75.5573 0)
(358.951 73.5604 0)
(360.693 71.872 0)
(364.058 70.6969 0)
(370.825 69.5858 0)
(373.434 73.6023 0)
(210 4.27785e-13 0)
(210 4.46788e-12 0)
(210 1.24556e-12 0)
(210 8.31736e-12 0)
(210 6.23451e-12 0)
(210 5.34319e-12 0)
(210 8.86516e-12 0)
(210 -9.27232e-12 0)
(210 -3.97703e-12 0)
(210 2.45449e-12 0)
(210 6.14391e-12 0)
(210 5.16942e-12 0)
(210 2.95239e-13 0)
(210 3.3906e-12 0)
(210 -8.52404e-12 0)
(210 -4.43989e-12 0)
(210 1.5503e-13 0)
(210 6.78179e-13 0)
(210 -3.7802e-12 0)
(210 1.17895e-12 0)
(210 2.19022e-11 0)
(210 2.26089e-09 0)
(210 2.39106e-07 0)
(210 2.63153e-05 0)
(209.99 0.00206529 0)
(209.817 0.0537813 0)
(208.756 0.455518 0)
(206.431 1.50038 0)
(204.189 2.53362 0)
(203.419 3.02984 0)
(203.144 3.27282 0)
(203.458 3.32492 0)
(204.328 3.07856 0)
(205.287 2.8479 0)
(206.055 2.64959 0)
(206.778 2.58666 0)
(207.458 2.54078 0)
(208.107 2.54094 0)
(208.739 2.58414 0)
(209.37 2.6708 0)
(210.014 2.782 0)
(210.629 2.93384 0)
(211.063 3.22248 0)
(211.211 3.65672 0)
(211.223 4.15589 0)
(211.014 4.87914 0)
(210.907 5.58703 0)
(210.95 6.22194 0)
(211.082 6.80109 0)
(211.299 7.34519 0)
(211.486 7.94186 0)
(211.63 8.59968 0)
(211.774 9.29774 0)
(211.897 10.0431 0)
(211.958 10.843 0)
(211.958 11.6941 0)
(211.897 12.6374 0)
(211.857 13.5958 0)
(211.845 14.5582 0)
(211.839 15.5394 0)
(211.847 16.5463 0)
(211.847 17.5999 0)
(211.831 18.7045 0)
(211.805 19.8563 0)
(211.768 21.0551 0)
(211.724 22.2985 0)
(211.674 23.5851 0)
(211.625 24.9128 0)
(211.578 26.283 0)
(211.542 27.692 0)
(211.521 29.1467 0)
(211.509 30.6498 0)
(211.512 32.2026 0)
(211.54 33.8096 0)
(211.591 35.4697 0)
(211.675 37.1836 0)
(211.808 38.9536 0)
(211.983 40.7788 0)
(212.227 42.6622 0)
(212.535 44.6047 0)
(212.917 46.608 0)
(213.396 48.6726 0)
(213.966 50.7979 0)
(214.667 52.9819 0)
(215.479 55.224 0)
(216.462 57.5193 0)
(217.584 59.8669 0)
(218.904 62.2584 0)
(220.418 64.6873 0)
(222.143 67.1468 0)
(224.122 69.6256 0)
(226.333 72.1213 0)
(228.856 74.5918 0)
(231.632 77.0342 0)
(234.761 79.4123 0)
(238.22 81.7315 0)
(242.002 84.0208 0)
(246.242 86.1145 0)
(250.724 88.166 0)
(255.703 89.9068 0)
(260.968 91.4753 0)
(266.632 92.7139 0)
(272.731 93.7485 0)
(278.62 94.3829 0)
(285.394 94.8251 0)
(291.822 94.7395 0)
(298.167 94.4651 0)
(305.224 93.7469 0)
(311.092 92.9857 0)
(318.007 91.8313 0)
(323.993 90.6492 0)
(330.198 89.0613 0)
(336.076 87.3364 0)
(342.09 85.3695 0)
(346.993 83.6074 0)
(350.925 81.8074 0)
(353.789 80.005 0)
(356.487 78.4148 0)
(360.826 76.8307 0)
(368.286 75.4617 0)
(371.226 79.5258 0)
(210 6.58055e-12 0)
(210 5.01318e-12 0)
(210 6.93415e-12 0)
(210 6.53489e-12 0)
(210 5.11879e-12 0)
(210 2.08066e-12 0)
(210 -5.02964e-12 0)
(210 -7.64988e-12 0)
(210 -1.44286e-12 0)
(210 6.74656e-12 0)
(210 2.21438e-12 0)
(210 9.98973e-13 0)
(210 -1.80356e-12 0)
(210 -4.94208e-12 0)
(210 -6.75244e-12 0)
(210 2.8996e-13 0)
(210 2.1825e-12 0)
(210 -3.04134e-12 0)
(210 -7.25096e-12 0)
(210 2.79083e-12 0)
(210 1.95509e-12 0)
(210 3.17017e-10 0)
(210 3.88529e-08 0)
(210 5.91289e-06 0)
(209.996 0.000758224 0)
(209.895 0.0270919 0)
(209.107 0.299469 0)
(206.947 1.20505 0)
(204.478 2.30962 0)
(203.39 2.93998 0)
(202.987 3.1805 0)
(203.207 3.31606 0)
(203.979 3.13557 0)
(204.916 2.88568 0)
(205.695 2.66147 0)
(206.428 2.60118 0)
(207.109 2.56408 0)
(207.756 2.57351 0)
(208.386 2.62329 0)
(209.011 2.71263 0)
(209.644 2.8239 0)
(210.255 2.96296 0)
(210.71 3.2173 0)
(210.875 3.61757 0)
(210.898 4.07386 0)
(210.673 4.76702 0)
(210.493 5.48333 0)
(210.492 6.10629 0)
(210.591 6.69486 0)
(210.777 7.23671 0)
(210.942 7.81871 0)
(211.066 8.46258 0)
(211.187 9.1504 0)
(211.286 9.88504 0)
(211.334 10.6688 0)
(211.323 11.4982 0)
(211.238 12.4221 0)
(211.156 13.3689 0)
(211.108 14.3186 0)
(211.073 15.2819 0)
(211.041 16.2722 0)
(211.003 17.3055 0)
(210.951 18.3875 0)
(210.888 19.5141 0)
(210.809 20.6893 0)
(210.719 21.9088 0)
(210.62 23.1711 0)
(210.519 24.4741 0)
(210.412 25.8221 0)
(210.316 27.2043 0)
(210.229 28.6315 0)
(210.146 30.1074 0)
(210.075 31.6314 0)
(210.022 33.2102 0)
(209.984 34.8426 0)
(209.971 36.5285 0)
(209.997 38.2722 0)
(210.055 40.0721 0)
(210.172 41.9325 0)
(210.341 43.8544 0)
(210.573 45.8402 0)
(210.888 47.8918 0)
(211.28 50.0093 0)
(211.788 52.1933 0)
(212.391 54.4434 0)
(213.148 56.7575 0)
(214.026 59.1334 0)
(215.088 61.5655 0)
(216.326 64.0496 0)
(217.766 66.5814 0)
(219.442 69.1524 0)
(221.34 71.7566 0)
(223.532 74.3625 0)
(225.967 76.9745 0)
(228.753 79.5628 0)
(231.841 82.1276 0)
(235.268 84.6451 0)
(239.112 87.0005 0)
(243.182 89.3103 0)
(247.767 91.3132 0)
(252.58 93.2793 0)
(257.881 94.9235 0)
(263.518 96.3614 0)
(269.646 97.4302 0)
(275.852 98.1859 0)
(282.695 98.7127 0)
(289.121 98.7889 0)
(296.441 98.6224 0)
(303.426 97.9747 0)
(309.623 97.3641 0)
(316.444 96.3922 0)
(322.161 95.4911 0)
(328.53 94.187 0)
(335.08 92.5166 0)
(340.391 91.0117 0)
(345.663 89.0321 0)
(349.171 87.0179 0)
(351.648 85.3265 0)
(355.56 83.8274 0)
(363.353 82.2257 0)
(366.13 86.7668 0)
(210 1.18807e-11 0)
(210 6.61919e-12 0)
(210 8.40084e-12 0)
(210 8.93357e-12 0)
(210 1.04496e-12 0)
(210 -5.16573e-12 0)
(210 -5.59057e-12 0)
(210 -1.60579e-12 0)
(210 2.539e-12 0)
(210 -1.89667e-12 0)
(210 1.41105e-14 0)
(210 3.8079e-12 0)
(210 -9.85751e-13 0)
(210 -5.1803e-12 0)
(210 -2.24239e-12 0)
(210 3.99741e-12 0)
(210 1.00518e-13 0)
(210 -7.32326e-12 0)
(210 -2.35765e-12 0)
(210 7.64626e-12 0)
(210 3.03033e-12 0)
(210 9.64801e-11 0)
(210 9.12804e-09 0)
(210 1.27408e-06 0)
(209.998 0.000247857 0)
(209.945 0.0123543 0)
(209.404 0.182286 0)
(207.52 0.92295 0)
(204.908 2.05446 0)
(203.434 2.80815 0)
(202.836 3.09352 0)
(202.988 3.3087 0)
(203.62 3.16232 0)
(204.516 2.89089 0)
(205.317 2.64146 0)
(206.069 2.58678 0)
(206.754 2.56306 0)
(207.396 2.58315 0)
(208.02 2.63699 0)
(208.637 2.725 0)
(209.256 2.83275 0)
(209.861 2.96 0)
(210.34 3.1798 0)
(210.531 3.54593 0)
(210.569 3.96801 0)
(210.344 4.62456 0)
(210.082 5.35227 0)
(210.023 5.97552 0)
(210.094 6.57143 0)
(210.242 7.1105 0)
(210.387 7.67658 0)
(210.496 8.30661 0)
(210.594 8.98472 0)
(210.667 9.70972 0)
(210.701 10.4787 0)
(210.681 11.2882 0)
(210.573 12.1927 0)
(210.445 13.13 0)
(210.355 14.0691 0)
(210.288 15.0191 0)
(210.222 15.9936 0)
(210.148 17.0057 0)
(210.059 18.0652 0)
(209.953 19.1729 0)
(209.833 20.3239 0)
(209.698 21.5186 0)
(209.55 22.7568 0)
(209.393 24.0382 0)
(209.234 25.3578 0)
(209.077 26.7178 0)
(208.923 28.121 0)
(208.77 29.5725 0)
(208.628 31.0677 0)
(208.496 32.6162 0)
(208.371 34.2201 0)
(208.268 35.8757 0)
(208.193 37.5895 0)
(208.142 39.3595 0)
(208.142 41.1893 0)
(208.183 43.0803 0)
(208.278 45.0349 0)
(208.442 47.0566 0)
(208.673 49.145 0)
(209.004 51.3024 0)
(209.415 53.5277 0)
(209.962 55.8215 0)
(210.611 58.1813 0)
(211.425 60.6066 0)
(212.39 63.0961 0)
(213.534 65.6482 0)
(214.884 68.2565 0)
(216.433 70.9136 0)
(218.25 73.5997 0)
(220.292 76.3197 0)
(222.669 79.049 0)
(225.321 81.7831 0)
(228.326 84.4802 0)
(231.72 87.0854 0)
(235.394 89.6768 0)
(239.617 92.0504 0)
(244.021 94.4379 0)
(248.992 96.4882 0)
(254.233 98.4599 0)
(259.899 100.041 0)
(265.974 101.382 0)
(272.333 102.404 0)
(279.249 103.067 0)
(285.486 103.341 0)
(293.33 103.423 0)
(299.779 102.956 0)
(307.596 102.21 0)
(314.757 101.012 0)
(321.276 99.8236 0)
(327.982 98.535 0)
(334.016 97.0663 0)
(339.417 95.1981 0)
(343.233 93.1904 0)
(346.048 91.5953 0)
(350.17 90.5718 0)
(358.516 89.135 0)
(361.27 94.4476 0)
(210 3.08517e-12 0)
(210 -4.80395e-12 0)
(210 2.06324e-12 0)
(210 3.69769e-12 0)
(210 -6.58981e-12 0)
(210 -4.8313e-12 0)
(210 -5.17462e-12 0)
(210 3.32506e-12 0)
(210 3.13506e-12 0)
(210 -9.41839e-12 0)
(210 -1.92803e-12 0)
(210 -5.16902e-12 0)
(210 -1.50441e-12 0)
(210 -4.24329e-13 0)
(210 -7.02073e-13 0)
(210 2.30904e-12 0)
(210 -5.97482e-12 0)
(210 -1.03771e-11 0)
(210 5.23848e-12 0)
(210 1.02081e-11 0)
(210 6.06388e-12 0)
(210 -1.63688e-11 0)
(210 -1.49443e-09 0)
(210 5.45143e-08 0)
(209.999 6.07966e-05 0)
(209.974 0.00483749 0)
(209.633 0.099448 0)
(208.086 0.655209 0)
(205.414 1.74559 0)
(203.542 2.63814 0)
(202.711 3.02973 0)
(202.793 3.24546 0)
(203.255 3.1539 0)
(204.093 2.90122 0)
(204.924 2.64672 0)
(205.705 2.60886 0)
(206.395 2.59392 0)
(207.031 2.61587 0)
(207.646 2.66782 0)
(208.252 2.75114 0)
(208.855 2.85321 0)
(209.448 2.96901 0)
(209.942 3.15516 0)
(210.165 3.48205 0)
(210.212 3.87745 0)
(210 4.48182 0)
(209.664 5.21116 0)
(209.536 5.84389 0)
(209.583 6.43803 0)
(209.689 6.9781 0)
(209.816 7.53442 0)
(209.914 8.15279 0)
(209.986 8.82119 0)
(210.031 9.53508 0)
(210.053 10.2866 0)
(210.026 11.0727 0)
(209.898 11.9517 0)
(209.729 12.8745 0)
(209.595 13.8005 0)
(209.495 14.7335 0)
(209.4 15.6879 0)
(209.293 16.6779 0)
(209.167 17.7133 0)
(209.024 18.7942 0)
(208.863 19.9191 0)
(208.685 21.0873 0)
(208.491 22.2983 0)
(208.285 23.551 0)
(208.072 24.8442 0)
(207.857 26.1769 0)
(207.643 27.5509 0)
(207.43 28.968 0)
(207.217 30.4335 0)
(207.012 31.9484 0)
(206.802 33.5242 0)
(206.613 35.144 0)
(206.441 36.823 0)
(206.284 38.5603 0)
(206.17 40.3581 0)
(206.084 42.2194 0)
(206.045 44.1446 0)
(206.06 46.1398 0)
(206.13 48.2045 0)
(206.285 50.343 0)
(206.505 52.5541 0)
(206.845 54.8414 0)
(207.269 57.2023 0)
(207.841 59.6396 0)
(208.543 62.1512 0)
(209.408 64.7346 0)
(210.456 67.3832 0)
(211.693 70.0907 0)
(213.179 72.8472 0)
(214.879 75.6574 0)
(216.892 78.4992 0)
(219.149 81.3633 0)
(221.749 84.2122 0)
(224.684 87.0292 0)
(227.921 89.849 0)
(231.665 92.5401 0)
(235.601 95.259 0)
(240.169 97.6665 0)
(244.909 100.061 0)
(250.228 102.123 0)
(255.944 104.013 0)
(261.952 105.498 0)
(268.56 106.901 0)
(274.926 107.687 0)
(282.118 108.266 0)
(289.203 108.478 0)
(296.251 108.344 0)
(303.75 107.961 0)
(310.762 107.093 0)
(317.48 106.245 0)
(325.103 105.065 0)
(331.618 103.333 0)
(336.608 101.151 0)
(340.581 98.7604 0)
(345.031 97.48 0)
(354.119 96.1594 0)
(357.084 102.309 0)
(210 -3.391e-12 0)
(210 -3.75791e-12 0)
(210 5.56068e-12 0)
(210 1.15531e-12 0)
(210 -4.10941e-12 0)
(210 -8.85379e-12 0)
(210 -8.41381e-12 0)
(210 -4.80211e-12 0)
(210 -1.20342e-11 0)
(210 -5.74348e-12 0)
(210 -5.13982e-12 0)
(210 3.30078e-12 0)
(210 2.36784e-12 0)
(210 -1.08775e-13 0)
(210 -2.78553e-13 0)
(210 -2.2296e-12 0)
(210 -7.42391e-12 0)
(210 -5.57485e-12 0)
(210 8.69282e-12 0)
(210 1.22989e-12 0)
(210 3.5326e-12 0)
(210 -2.50766e-12 0)
(210 -9.66422e-10 0)
(210 -6.2036e-08 0)
(210 9.57032e-06 0)
(209.989 0.00160242 0)
(209.796 0.048148 0)
(208.625 0.428876 0)
(206.053 1.41957 0)
(203.795 2.42786 0)
(202.649 2.94078 0)
(202.632 3.13845 0)
(202.9 3.10342 0)
(203.658 2.90969 0)
(204.522 2.66437 0)
(205.334 2.6321 0)
(206.023 2.60739 0)
(206.647 2.62006 0)
(207.252 2.66606 0)
(207.849 2.74442 0)
(208.438 2.84183 0)
(209.015 2.94858 0)
(209.523 3.10188 0)
(209.789 3.38733 0)
(209.85 3.76008 0)
(209.678 4.30219 0)
(209.278 5.02501 0)
(209.056 5.67899 0)
(209.073 6.26562 0)
(209.135 6.81673 0)
(209.246 7.36576 0)
(209.334 7.9729 0)
(209.376 8.63079 0)
(209.391 9.33288 0)
(209.4 10.0689 0)
(209.363 10.8355 0)
(209.218 11.6899 0)
(209.009 12.5987 0)
(208.828 13.5149 0)
(208.688 14.4344 0)
(208.562 15.3711 0)
(208.422 16.3399 0)
(208.26 17.3516 0)
(208.077 18.4077 0)
(207.876 19.5065 0)
(207.655 20.6478 0)
(207.415 21.8318 0)
(207.159 23.0579 0)
(206.893 24.3238 0)
(206.623 25.6285 0)
(206.349 26.9731 0)
(206.072 28.3615 0)
(205.791 29.7965 0)
(205.509 31.2821 0)
(205.23 32.8164 0)
(204.957 34.4043 0)
(204.692 36.0483 0)
(204.435 37.752 0)
(204.215 39.5089 0)
(204.01 41.3325 0)
(203.851 43.2177 0)
(203.73 45.1742 0)
(203.655 47.1991 0)
(203.65 49.2984 0)
(203.7 51.4704 0)
(203.851 53.7207 0)
(204.069 56.0464 0)
(204.418 58.4534 0)
(204.872 60.9387 0)
(205.47 63.5032 0)
(206.225 66.1451 0)
(207.148 68.8644 0)
(208.287 71.6603 0)
(209.615 74.5339 0)
(211.223 77.4671 0)
(213.052 80.4518 0)
(215.218 83.4652 0)
(217.693 86.5042 0)
(220.507 89.5657 0)
(223.789 92.5627 0)
(227.32 95.5783 0)
(231.493 98.363 0)
(235.836 101.181 0)
(240.847 103.642 0)
(246.106 106.07 0)
(251.92 108.155 0)
(258.104 110.021 0)
(264.84 111.427 0)
(271.565 112.426 0)
(279.243 113.226 0)
(286.057 113.513 0)
(293.413 113.635 0)
(300.876 113.349 0)
(307.933 112.732 0)
(315.213 111.91 0)
(322.288 110.511 0)
(327.216 108.909 0)
(331.614 106.946 0)
(336.737 105.448 0)
(346.619 103.959 0)
(349.382 110.59 0)
(210 -7.77968e-13 0)
(210 1.88749e-12 0)
(210 6.83405e-12 0)
(210 2.65778e-12 0)
(210 -4.4323e-12 0)
(210 -1.63937e-11 0)
(210 -1.27435e-11 0)
(210 -1.10937e-11 0)
(210 -1.40691e-11 0)
(210 -8.18449e-14 0)
(210 6.31447e-12 0)
(210 1.40947e-11 0)
(210 6.78445e-12 0)
(210 2.26358e-12 0)
(210 -3.86666e-13 0)
(210 -6.36446e-12 0)
(210 -1.09645e-11 0)
(210 -7.35599e-12 0)
(210 -2.14294e-12 0)
(210 -1.90667e-12 0)
(210 1.62428e-12 0)
(210 3.50011e-12 0)
(210 -5.04099e-10 0)
(210 -4.48819e-08 0)
(210 -9.35109e-07 0)
(209.996 0.000410692 0)
(209.898 0.019991 0)
(209.09 0.251836 0)
(206.764 1.07838 0)
(204.146 2.16311 0)
(202.62 2.7964 0)
(202.486 3.01052 0)
(202.574 3.04408 0)
(203.226 2.93805 0)
(204.113 2.70659 0)
(204.95 2.66165 0)
(205.632 2.6158 0)
(206.245 2.61913 0)
(206.843 2.66214 0)
(207.432 2.73562 0)
(208.006 2.82706 0)
(208.567 2.9266 0)
(209.077 3.05702 0)
(209.382 3.30829 0)
(209.456 3.66209 0)
(209.324 4.14336 0)
(208.876 4.85044 0)
(208.558 5.52986 0)
(208.532 6.11887 0)
(208.559 6.67852 0)
(208.656 7.21933 0)
(208.734 7.80985 0)
(208.746 8.45142 0)
(208.737 9.13513 0)
(208.729 9.85284 0)
(208.679 10.5998 0)
(208.523 11.4238 0)
(208.284 12.3109 0)
(208.057 13.2127 0)
(207.876 14.1151 0)
(207.717 15.03 0)
(207.549 15.9732 0)
(207.355 16.9576 0)
(207.135 17.9861 0)
(206.895 19.0567 0)
(206.634 20.1689 0)
(206.351 21.3229 0)
(206.05 22.5183 0)
(205.734 23.7536 0)
(205.411 25.0273 0)
(205.081 26.3399 0)
(204.745 27.6939 0)
(204.402 29.0932 0)
(204.052 30.5409 0)
(203.698 32.0398 0)
(203.342 33.5914 0)
(202.99 35.197 0)
(202.649 36.8558 0)
(202.327 38.5727 0)
(202.001 40.3646 0)
(201.724 42.2057 0)
(201.468 44.1225 0)
(201.252 46.1094 0)
(201.088 48.1743 0)
(200.966 50.3147 0)
(200.93 52.5374 0)
(200.944 54.8392 0)
(201.073 57.2286 0)
(201.286 59.7018 0)
(201.627 62.2631 0)
(202.102 64.9127 0)
(202.726 67.6511 0)
(203.539 70.4763 0)
(204.523 73.3818 0)
(205.762 76.3536 0)
(207.202 79.3869 0)
(208.96 82.4735 0)
(210.983 85.6127 0)
(213.335 88.7896 0)
(216.081 91.9546 0)
(219.092 95.143 0)
(222.692 98.2109 0)
(226.455 101.344 0)
(230.947 104.222 0)
(235.615 107.13 0)
(240.95 109.66 0)
(246.662 112.124 0)
(252.889 114.281 0)
(259.531 116.051 0)
(266.719 117.502 0)
(274.072 118.467 0)
(281.904 119.119 0)
(290.02 119.387 0)
(298.137 119.003 0)
(305.949 118.538 0)
(314.578 117.469 0)
(320.637 115.924 0)
(325.392 114.166 0)
(330.363 113.043 0)
(340.25 111.59 0)
(342.98 118.139 0)
(210 -6.06455e-13 0)
(210 7.25479e-12 0)
(210 3.0829e-12 0)
(210 -4.49883e-12 0)
(210 -1.32287e-11 0)
(210 -1.43093e-11 0)
(210 -2.34608e-12 0)
(210 -3.06752e-13 0)
(210 -1.2084e-12 0)
(210 4.58954e-12 0)
(210 1.16476e-11 0)
(210 8.68948e-12 0)
(210 -4.06095e-12 0)
(210 -3.83309e-12 0)
(210 -4.80762e-12 0)
(210 -1.36515e-11 0)
(210 -1.14418e-11 0)
(210 -2.51483e-12 0)
(210 1.97506e-12 0)
(210 6.20905e-12 0)
(210 3.2738e-12 0)
(210 -5.20837e-13 0)
(210 -1.67509e-10 0)
(210 -1.67838e-08 0)
(210 -1.04822e-06 0)
(209.999 6.56806e-05 0)
(209.955 0.00690136 0)
(209.455 0.130702 0)
(207.513 0.757567 0)
(204.686 1.84803 0)
(202.717 2.58268 0)
(202.38 2.87719 0)
(202.291 2.99065 0)
(202.8 2.96006 0)
(203.681 2.73346 0)
(204.54 2.6574 0)
(205.218 2.59387 0)
(205.828 2.5969 0)
(206.423 2.63959 0)
(207.006 2.70461 0)
(207.567 2.78209 0)
(208.111 2.86657 0)
(208.622 2.97506 0)
(208.972 3.19148 0)
(209.07 3.52643 0)
(208.995 3.9527 0)
(208.534 4.62756 0)
(208.101 5.33652 0)
(208.009 5.93398 0)
(208.001 6.50174 0)
(208.076 7.03622 0)
(208.142 7.61305 0)
(208.125 8.23974 0)
(208.098 8.90459 0)
(208.056 9.61637 0)
(207.99 10.3431 0)
(207.826 11.1361 0)
(207.56 12 0)
(207.285 12.8882 0)
(207.058 13.7763 0)
(206.862 14.6718 0)
(206.663 15.5911 0)
(206.438 16.5485 0)
(206.184 17.5491 0)
(205.905 18.5914 0)
(205.603 19.6745 0)
(205.278 20.799 0)
(204.931 21.9646 0)
(204.566 23.17 0)
(204.189 24.4132 0)
(203.804 25.6941 0)
(203.409 27.0152 0)
(203.004 28.3801 0)
(202.587 29.7918 0)
(202.161 31.2522 0)
(201.73 32.7633 0)
(201.296 34.3274 0)
(200.865 35.9475 0)
(200.439 37.6267 0)
(200.028 39.3606 0)
(199.638 41.1592 0)
(199.254 43.0335 0)
(198.91 44.9699 0)
(198.602 46.9821 0)
(198.328 49.0711 0)
(198.125 51.2424 0)
(197.957 53.4938 0)
(197.89 55.8341 0)
(197.883 58.2597 0)
(197.987 60.7779 0)
(198.198 63.3904 0)
(198.535 66.0986 0)
(199.031 68.9035 0)
(199.676 71.8018 0)
(200.546 74.7936 0)
(201.591 77.8799 0)
(202.928 81.0603 0)
(204.493 84.3272 0)
(206.383 87.66 0)
(208.621 91.0288 0)
(211.157 94.4466 0)
(214.228 97.8354 0)
(217.513 101.293 0)
(221.523 104.569 0)
(225.694 107.893 0)
(230.625 110.892 0)
(235.782 113.864 0)
(241.57 116.506 0)
(247.861 118.967 0)
(254.348 120.834 0)
(261.852 122.775 0)
(268.678 123.875 0)
(276.906 124.952 0)
(284.628 125.435 0)
(292.122 125.692 0)
(301.116 125.593 0)
(307.818 124.684 0)
(313.59 122.677 0)
(318.782 121.525 0)
(329.886 120.039 0)
(332.563 127.862 0)
(210 2.0542e-12 0)
(210 7.93029e-12 0)
(210 1.29895e-12 0)
(210 -4.54649e-12 0)
(210 -8.07388e-12 0)
(210 -3.52539e-12 0)
(210 7.47945e-12 0)
(210 6.65305e-12 0)
(210 -4.06616e-12 0)
(210 4.78549e-12 0)
(210 1.00226e-11 0)
(210 3.70305e-12 0)
(210 -3.56817e-12 0)
(210 -8.68525e-13 0)
(210 -4.72358e-12 0)
(210 -1.8093e-11 0)
(210 -3.46702e-12 0)
(210 6.0255e-12 0)
(210 1.16941e-11 0)
(210 7.95281e-12 0)
(210 4.57036e-12 0)
(210 5.27144e-12 0)
(210 -4.68609e-11 0)
(210 -5.23761e-09 0)
(210 -4.45982e-07 0)
(210 -4.36526e-06 0)
(209.983 0.00183738 0)
(209.709 0.0580478 0)
(208.23 0.479986 0)
(205.384 1.48677 0)
(202.936 2.325 0)
(202.278 2.76429 0)
(202.035 2.92893 0)
(202.384 2.93801 0)
(203.232 2.73792 0)
(204.11 2.64849 0)
(204.789 2.57199 0)
(205.398 2.56974 0)
(205.99 2.60704 0)
(206.566 2.66231 0)
(207.113 2.73054 0)
(207.638 2.81077 0)
(208.144 2.91259 0)
(208.532 3.10423 0)
(208.662 3.42098 0)
(208.632 3.80043 0)
(208.188 4.43318 0)
(207.643 5.16845 0)
(207.465 5.77913 0)
(207.424 6.34674 0)
(207.473 6.87155 0)
(207.527 7.43509 0)
(207.5 8.03555 0)
(207.443 8.68999 0)
(207.374 9.38153 0)
(207.29 10.0835 0)
(207.119 10.8395 0)
(206.833 11.672 0)
(206.514 12.5417 0)
(206.239 13.4139 0)
(206.006 14.2892 0)
(205.777 15.1833 0)
(205.524 16.1121 0)
(205.238 17.0828 0)
(204.924 18.0943 0)
(204.585 19.1454 0)
(204.221 20.2367 0)
(203.832 21.3686 0)
(203.422 22.5399 0)
(202.996 23.749 0)
(202.558 24.995 0)
(202.108 26.2795 0)
(201.645 27.606 0)
(201.166 28.9776 0)
(200.674 30.3968 0)
(200.171 31.8657 0)
(199.66 33.386 0)
(199.144 34.9602 0)
(198.63 36.591 0)
(198.12 38.2822 0)
(197.615 40.037 0)
(197.126 41.855 0)
(196.659 43.7428 0)
(196.208 45.7086 0)
(195.779 47.753 0)
(195.408 49.8737 0)
(195.058 52.0802 0)
(194.797 54.3785 0)
(194.574 56.7666 0)
(194.448 59.2504 0)
(194.405 61.8327 0)
(194.472 64.5153 0)
(194.671 67.3021 0)
(195 70.1915 0)
(195.525 73.1891 0)
(196.199 76.2916 0)
(197.133 79.4994 0)
(198.259 82.7999 0)
(199.689 86.1838 0)
(201.411 89.6412 0)
(203.434 93.1814 0)
(205.918 96.7615 0)
(208.643 100.414 0)
(212.034 103.987 0)
(215.602 107.639 0)
(219.984 111.099 0)
(224.599 114.623 0)
(229.99 117.797 0)
(235.747 120.898 0)
(242.192 123.744 0)
(249.004 126.208 0)
(256.428 128.133 0)
(264.15 129.669 0)
(272.702 131.058 0)
(280.815 131.595 0)
(290.152 132.009 0)
(298.163 131.797 0)
(305.424 130.324 0)
(311.488 129.062 0)
(322.868 128.014 0)
(325.488 136.597 0)
(210 5.25747e-12 0)
(210 -4.97759e-12 0)
(210 -4.57184e-12 0)
(210 -2.77045e-12 0)
(210 -7.5833e-12 0)
(210 -1.12312e-12 0)
(210 4.20568e-12 0)
(210 1.74434e-13 0)
(210 -9.83333e-13 0)
(210 1.62038e-11 0)
(210 1.28617e-11 0)
(210 -2.58442e-12 0)
(210 -7.86635e-12 0)
(210 -2.20022e-12 0)
(210 -5.46751e-12 0)
(210 -2.11297e-12 0)
(210 1.07507e-11 0)
(210 7.38529e-12 0)
(210 6.52815e-12 0)
(210 -5.32515e-13 0)
(210 2.20266e-12 0)
(210 7.30783e-13 0)
(210 -2.19656e-11 0)
(210 -1.38055e-09 0)
(210 -1.43147e-07 0)
(210 -7.75157e-06 0)
(209.994 0.000302932 0)
(209.863 0.0212837 0)
(208.851 0.269597 0)
(206.204 1.10667 0)
(203.382 2.05058 0)
(202.239 2.64893 0)
(201.829 2.76298 0)
(202.019 2.85442 0)
(202.782 2.74144 0)
(203.665 2.63732 0)
(204.35 2.53278 0)
(204.963 2.50951 0)
(205.553 2.53457 0)
(206.125 2.58134 0)
(206.662 2.64612 0)
(207.174 2.72872 0)
(207.672 2.83314 0)
(208.093 3.00623 0)
(208.273 3.30156 0)
(208.278 3.6502 0)
(207.891 4.22556 0)
(207.243 4.96445 0)
(206.943 5.59503 0)
(206.864 6.15072 0)
(206.881 6.67813 0)
(206.923 7.23015 0)
(206.886 7.81006 0)
(206.804 8.44478 0)
(206.703 9.11768 0)
(206.595 9.79768 0)
(206.413 10.5207 0)
(206.11 11.3213 0)
(205.749 12.1715 0)
(205.423 13.0288 0)
(205.149 13.8852 0)
(204.889 14.7549 0)
(204.608 15.6554 0)
(204.291 16.5963 0)
(203.942 17.5779 0)
(203.565 18.5984 0)
(203.162 19.658 0)
(202.731 20.7571 0)
(202.275 21.8951 0)
(201.8 23.0702 0)
(201.31 24.2813 0)
(200.806 25.5293 0)
(200.286 26.8173 0)
(199.748 28.1487 0)
(199.191 29.5261 0)
(198.62 30.9514 0)
(198.035 32.4268 0)
(197.441 33.9545 0)
(196.841 35.537 0)
(196.239 37.1771 0)
(195.639 38.8779 0)
(195.043 40.6441 0)
(194.455 42.4795 0)
(193.88 44.3852 0)
(193.331 46.3631 0)
(192.809 48.422 0)
(192.291 50.5721 0)
(191.859 52.7991 0)
(191.439 55.1219 0)
(191.113 57.5395 0)
(190.838 60.06 0)
(190.657 62.6842 0)
(190.576 65.4193 0)
(190.602 68.2656 0)
(190.786 71.2324 0)
(191.095 74.3143 0)
(191.629 77.5185 0)
(192.324 80.8336 0)
(193.302 84.2655 0)
(194.525 87.8088 0)
(196.046 91.4649 0)
(197.962 95.2028 0)
(200.138 99.0283 0)
(202.91 102.865 0)
(205.884 106.791 0)
(209.632 110.613 0)
(213.555 114.52 0)
(218.334 118.202 0)
(223.398 121.886 0)
(229.183 125.19 0)
(235.506 128.44 0)
(242.479 131.342 0)
(249.676 133.563 0)
(257.898 135.892 0)
(266.809 137.558 0)
(274.361 138.386 0)
(284.171 139.169 0)
(291.551 138.712 0)
(297.519 138.273 0)
(308.82 137.476 0)
(310.695 146.193 0)
(210 -9.70999e-13 0)
(210 -1.19401e-11 0)
(210 -1.01767e-11 0)
(210 -1.41586e-11 0)
(210 -1.30628e-11 0)
(210 1.77043e-12 0)
(210 -1.39869e-12 0)
(210 4.62685e-14 0)
(210 7.69674e-12 0)
(210 1.19771e-11 0)
(210 2.63355e-12 0)
(210 -5.53362e-12 0)
(210 -1.3264e-12 0)
(210 4.08914e-12 0)
(210 3.04816e-12 0)
(210 2.40579e-12 0)
(210 6.51305e-12 0)
(210 2.95692e-12 0)
(210 -2.02911e-12 0)
(210 -3.07522e-12 0)
(210 1.95523e-12 0)
(210 -3.8624e-12 0)
(210 -1.71432e-12 0)
(210 -3.29881e-10 0)
(210 -3.83694e-08 0)
(210 -3.00698e-06 0)
(209.998 -1.82186e-05 0)
(209.944 0.00600405 0)
(209.329 0.129681 0)
(207.091 0.757576 0)
(203.971 1.72058 0)
(202.293 2.45767 0)
(201.629 2.57011 0)
(201.704 2.79994 0)
(202.345 2.74818 0)
(203.203 2.60644 0)
(203.9 2.4575 0)
(204.522 2.42106 0)
(205.111 2.45591 0)
(205.679 2.51554 0)
(206.211 2.5874 0)
(206.712 2.67368 0)
(207.202 2.77925 0)
(207.642 2.93509 0)
(207.88 3.20021 0)
(207.903 3.53425 0)
(207.598 4.03229 0)
(206.872 4.75267 0)
(206.431 5.40607 0)
(206.293 5.95629 0)
(206.282 6.48592 0)
(206.31 7.02303 0)
(206.266 7.5769 0)
(206.166 8.18687 0)
(206.03 8.83904 0)
(205.897 9.49743 0)
(205.704 10.1891 0)
(205.388 10.9552 0)
(204.99 11.7817 0)
(204.613 12.6221 0)
(204.295 13.4592 0)
(204.003 14.3038 0)
(203.696 15.1744 0)
(203.352 16.0832 0)
(202.972 17.0321 0)
(202.561 18.0193 0)
(202.122 19.0446 0)
(201.654 20.1085 0)
(201.157 21.2105 0)
(200.636 22.3491 0)
(200.097 23.5229 0)
(199.542 24.732 0)
(198.97 25.9791 0)
(198.376 27.2674 0)
(197.761 28.5999 0)
(197.126 29.9786 0)
(196.474 31.4056 0)
(195.807 32.8833 0)
(195.128 34.4143 0)
(194.441 36.0011 0)
(193.748 37.6471 0)
(193.051 39.3559 0)
(192.354 41.1315 0)
(191.66 42.9783 0)
(190.977 44.9009 0)
(190.302 46.9014 0)
(189.655 48.9782 0)
(189.049 51.1439 0)
(188.422 53.4193 0)
(187.902 55.7686 0)
(187.398 58.2291 0)
(186.983 60.7951 0)
(186.637 63.4762 0)
(186.382 66.2705 0)
(186.254 69.1893 0)
(186.229 72.2264 0)
(186.398 75.396 0)
(186.696 78.6883 0)
(187.246 82.1211 0)
(187.991 85.686 0)
(189.015 89.3848 0)
(190.363 93.1998 0)
(191.972 97.1336 0)
(194.094 101.157 0)
(196.434 105.301 0)
(199.495 109.454 0)
(202.76 113.714 0)
(206.89 117.853 0)
(211.294 122.075 0)
(216.588 126.028 0)
(222.275 129.876 0)
(228.695 133.436 0)
(235.797 136.928 0)
(243.21 139.636 0)
(251.815 142.443 0)
(260.508 144.145 0)
(269.902 145.614 0)
(278.229 146.023 0)
(284.549 146.157 0)
(296.482 146.08 0)
(297.783 156.268 0)
(210 -5.32095e-12 0)
(210 -9.77537e-12 0)
(210 -9.95702e-12 0)
(210 -2.01017e-11 0)
(210 -1.07055e-12 0)