/*--------------------------------*- C++ -*----------------------------------*\
| =========                 |                                                 |
| \\      /  F ield         | OpenFOAM: The Open Source CFD Toolbox           |
|  \\    /   O peration     | Version:  2412                                  |
|   \\  /    A nd           | Website:  www.openfoam.com                      |
|    \\/     M anipulation  |                                                 |
\*---------------------------------------------------------------------------*/
FoamFile
{
    version     2.0;
    format      ascii;
    arch        "LSB;label=32;scalar=64";
    class       volVectorField;
    location    "0.103";
    object      U;
}
// * * * * * * * * * * * * * * * * * * * * * * * * * * * * * * * * * * * * * //

dimensions      [0 1 -1 0 0 0 0];

internalField   nonuniform List<vector> 
9859
(
(200.349 -28.1535 0)
(200.501 -27.9492 0)
(200.362 -27.8311 0)
(200.228 -27.8591 0)
(200.185 -27.9043 0)
(200.252 -27.9754 0)
(200.473 -28.0605 0)
(200.782 -28.1636 0)
(201.052 -28.3502 0)
(201.292 -28.6036 0)
(201.448 -28.9085 0)
(201.59 -29.2682 0)
(201.722 -29.6724 0)
(201.85 -30.1021 0)
(202.002 -30.5502 0)
(202.149 -31.0043 0)
(202.318 -31.4602 0)
(202.473 -31.9149 0)
(202.643 -32.3673 0)
(202.807 -32.8183 0)
(202.986 -33.2653 0)
(203.173 -33.7067 0)
(203.37 -34.1378 0)
(203.576 -34.5526 0)
(203.78 -34.9457 0)
(203.986 -35.3106 0)
(204.179 -35.6484 0)
(204.37 -35.9563 0)
(204.546 -36.2409 0)
(204.719 -36.4995 0)
(204.878 -36.7395 0)
(205.035 -36.9577 0)
(205.188 -37.1591 0)
(205.348 -37.3416 0)
(205.509 -37.5121 0)
(205.683 -37.6667 0)
(205.863 -37.815 0)
(206.054 -37.9533 0)
(206.249 -38.0869 0)
(206.448 -38.2056 0)
(206.649 -38.3059 0)
(206.851 -38.3726 0)
(207.049 -38.4073 0)
(207.232 -38.4216 0)
(207.385 -38.4392 0)
(207.507 -38.4594 0)
(207.6 -38.4691 0)
(207.67 -38.4478 0)
(207.716 -38.4006 0)
(207.732 -38.3315 0)
(207.719 -38.2449 0)
(207.667 -38.122 0)
(207.562 -37.947 0)
(207.396 -37.7264 0)
(207.162 -37.4696 0)
(206.838 -37.1322 0)
(206.392 -36.6653 0)
(205.793 -36.0866 0)
(205.047 -35.4054 0)
(204.184 -34.6482 0)
(203.253 -33.8741 0)
(202.315 -33.1348 0)
(201.429 -32.4528 0)
(200.626 -31.8376 0)
(199.924 -31.2773 0)
(199.319 -30.7652 0)
(198.813 -30.3074 0)
(198.392 -29.9093 0)
(198.047 -29.5824 0)
(200.354 -28.1744 0)
(200.499 -27.9772 0)
(200.361 -27.8636 0)
(200.227 -27.8967 0)
(200.184 -27.9453 0)
(200.251 -28.0189 0)
(200.473 -28.1064 0)
(200.784 -28.2133 0)
(201.059 -28.4029 0)
(201.299 -28.6573 0)
(201.462 -28.9646 0)
(201.604 -29.3247 0)
(201.739 -29.7298 0)
(201.868 -30.1596 0)
(202.021 -30.6077 0)
(202.168 -31.0616 0)
(202.338 -31.5168 0)
(202.494 -31.9703 0)
(202.664 -32.4208 0)
(202.828 -32.8691 0)
(203.006 -33.3127 0)
(203.192 -33.7503 0)
(203.388 -34.1773 0)
(203.592 -34.5879 0)
(203.795 -34.9768 0)
(204 -35.3375 0)
(204.193 -35.6712 0)
(204.383 -35.9751 0)
(204.559 -36.2557 0)
(204.732 -36.5104 0)
(204.892 -36.7465 0)
(205.05 -36.9612 0)
(205.203 -37.1592 0)
(205.361 -37.3389 0)
(205.523 -37.505 0)
(205.696 -37.6544 0)
(205.876 -37.797 0)
(206.066 -37.9291 0)
(206.26 -38.0578 0)
(206.46 -38.1749 0)
(206.662 -38.2781 0)
(206.868 -38.3507 0)
(207.07 -38.3897 0)
(207.259 -38.403 0)
(207.422 -38.4156 0)
(207.553 -38.4324 0)
(207.656 -38.4449 0)
(207.736 -38.4322 0)
(207.794 -38.389 0)
(207.827 -38.3183 0)
(207.83 -38.2258 0)
(207.8 -38.1053 0)
(207.725 -37.9397 0)
(207.594 -37.7309 0)
(207.4 -37.4908 0)
(207.122 -37.1751 0)
(206.728 -36.7246 0)
(206.179 -36.1536 0)
(205.47 -35.4839 0)
(204.631 -34.7369 0)
(203.71 -33.9666 0)
(202.77 -33.2256 0)
(201.875 -32.5384 0)
(201.061 -31.9157 0)
(200.349 -31.345 0)
(199.736 -30.8201 0)
(199.223 -30.3545 0)
(198.795 -29.9577 0)
(198.446 -29.635 0)
(198.175 -29.3784 0)
(197.997 -29.1479 0)
(197.906 -28.9173 0)
(197.772 -28.732 0)
(197.643 -28.6103 0)
(197.588 -28.5675 0)
(197.915 -27.7694 0)
(198.102 -27.6469 0)
(198.294 -27.4704 0)
(198.448 -27.2174 0)
(198.553 -26.9069 0)
(198.632 -26.5833 0)
(198.714 -26.2747 0)
(198.808 -25.9778 0)
(198.915 -25.6798 0)
(199.008 -25.3695 0)
(199.058 -25.048 0)
(199.064 -24.7317 0)
(199.041 -24.4428 0)
(199.015 -24.2008 0)
(199.019 -24.0128 0)
(199.086 -23.8785 0)
(199.235 -23.7998 0)
(199.415 -23.7631 0)
(199.572 -23.7384 0)
(199.671 -23.7022 0)
(199.741 -23.6905 0)
(199.846 -23.7504 0)
(200.015 -23.8804 0)
(200.237 -24.029 0)
(200.449 -24.1974 0)
(200.594 -24.3761 0)
(200.641 -24.5098 0)
(200.616 -24.6308 0)
(200.451 -24.8006 0)
(200.122 -25.0379 0)
(199.871 -25.4833 0)
(199.819 -26.0842 0)
(199.663 -26.7908 0)
(198.897 -27.6369 0)
(197.639 -28.8893 0)
(196.439 -30.9871 0)
(195.566 -34.5021 0)
(200.36 -28.1974 0)
(200.497 -28.0073 0)
(200.36 -27.8983 0)
(200.225 -27.9366 0)
(200.183 -27.9888 0)
(200.25 -28.0651 0)
(200.473 -28.1551 0)
(200.786 -28.2662 0)
(201.066 -28.4592 0)
(201.307 -28.7147 0)
(201.478 -29.0244 0)
(201.619 -29.3848 0)
(201.758 -29.7907 0)
(201.887 -30.2205 0)
(202.042 -30.6687 0)
(202.189 -31.1221 0)
(202.359 -31.5764 0)
(202.515 -32.0287 0)
(202.686 -32.477 0)
(202.849 -32.9225 0)
(203.027 -33.3626 0)
(203.211 -33.7962 0)
(203.406 -34.2188 0)
(203.609 -34.6249 0)
(203.81 -35.0093 0)
(204.014 -35.3654 0)
(204.206 -35.6945 0)
(204.396 -35.9938 0)
(204.572 -36.2698 0)
(204.745 -36.5201 0)
(204.906 -36.7523 0)
(205.065 -36.9635 0)
(205.218 -37.1576 0)
(205.377 -37.3331 0)
(205.539 -37.4956 0)
(205.712 -37.6407 0)
(205.893 -37.7782 0)
(206.085 -37.9051 0)
(206.281 -38.0297 0)
(206.483 -38.1447 0)
(206.686 -38.2493 0)
(206.89 -38.3266 0)
(207.092 -38.3708 0)
(207.287 -38.3848 0)
(207.457 -38.3918 0)
(207.597 -38.4036 0)
(207.709 -38.4172 0)
(207.8 -38.413 0)
(207.871 -38.3748 0)
(207.919 -38.3009 0)
(207.938 -38.2063 0)
(207.928 -38.0865 0)
(207.881 -37.9284 0)
(207.785 -37.7285 0)
(207.631 -37.5001 0)
(207.402 -37.2049 0)
(207.062 -36.7779 0)
(206.566 -36.2207 0)
(205.902 -35.5634 0)
(205.092 -34.8276 0)
(204.186 -34.0626 0)
(203.248 -33.3214 0)
(202.345 -32.6293 0)
(201.519 -31.9992 0)
(200.794 -31.4199 0)
(200.17 -30.8861 0)
(199.648 -30.4108 0)
(199.213 -30.0069 0)
(198.857 -29.6828 0)
(198.58 -29.4226 0)
(198.394 -29.1856 0)
(198.293 -28.9559 0)
(198.151 -28.7707 0)
(198.013 -28.6488 0)
(197.938 -28.5968 0)
(197.973 -28.6231 0)
(198.062 -28.6622 0)
(198.133 -28.66 0)
(198.168 -28.5837 0)
(198.148 -28.4326 0)
(198.081 -28.2433 0)
(198.052 -28.0587 0)
(198.111 -27.9087 0)
(198.25 -27.7913 0)
(198.44 -27.6683 0)
(198.641 -27.4947 0)
(198.807 -27.2467 0)
(198.924 -26.9412 0)
(199.013 -26.6207 0)
(199.098 -26.3132 0)
(199.187 -26.016 0)
(199.283 -25.7175 0)
(199.368 -25.4088 0)
(199.414 -25.0905 0)
(199.416 -24.7768 0)
(199.387 -24.4881 0)
(199.353 -24.2435 0)
(199.345 -24.0512 0)
(199.397 -23.9101 0)
(199.534 -23.8249 0)
(199.716 -23.789 0)
(199.881 -23.7695 0)
(199.989 -23.7379 0)
(200.059 -23.7259 0)
(200.151 -23.7804 0)
(200.294 -23.9024 0)
(200.49 -24.0457 0)
(200.69 -24.2152 0)
(200.837 -24.4009 0)
(200.902 -24.5422 0)
(200.903 -24.6695 0)
(200.773 -24.8504 0)
(200.445 -25.0893 0)
(200.18 -25.5216 0)
(200.132 -26.1187 0)
(200.004 -26.847 0)
(199.275 -27.7304 0)
(198.092 -28.9991 0)
(196.961 -31.086 0)
(196.268 -34.6179 0)
(200.365 -28.2226 0)
(200.495 -28.04 0)
(200.359 -27.9356 0)
(200.224 -27.9794 0)
(200.183 -28.0355 0)
(200.249 -28.1146 0)
(200.473 -28.2072 0)
(200.788 -28.3225 0)
(201.073 -28.519 0)
(201.315 -28.7756 0)
(201.495 -29.0877 0)
(201.635 -29.4487 0)
(201.778 -29.8553 0)
(201.907 -30.2851 0)
(202.063 -30.733 0)
(202.21 -31.1859 0)
(202.381 -31.6392 0)
(202.537 -32.0898 0)
(202.708 -32.5357 0)
(202.871 -32.9781 0)
(203.048 -33.4142 0)
(203.231 -33.8435 0)
(203.425 -34.2614 0)
(203.627 -34.6626 0)
(203.826 -35.042 0)
(204.029 -35.3933 0)
(204.221 -35.7178 0)
(204.41 -36.0125 0)
(204.586 -36.2842 0)
(204.759 -36.5302 0)
(204.92 -36.758 0)
(205.08 -36.9647 0)
(205.234 -37.1558 0)
(205.392 -37.3281 0)
(205.553 -37.4866 0)
(205.726 -37.6272 0)
(205.905 -37.7601 0)
(206.096 -37.8814 0)
(206.292 -38.0005 0)
(206.494 -38.1111 0)
(206.698 -38.215 0)
(206.905 -38.2965 0)
(207.11 -38.3479 0)
(207.31 -38.3648 0)
(207.489 -38.3672 0)
(207.639 -38.3735 0)
(207.761 -38.3869 0)
(207.861 -38.3886 0)
(207.944 -38.3575 0)
(208.007 -38.2863 0)
(208.044 -38.186 0)
(208.053 -38.0683 0)
(208.031 -37.915 0)
(207.968 -37.7205 0)
(207.854 -37.497 0)
(207.673 -37.2195 0)
(207.39 -36.8213 0)
(206.954 -36.285 0)
(206.339 -35.643 0)
(205.565 -34.9197 0)
(204.678 -34.1613 0)
(203.747 -33.4216 0)
(202.839 -32.7257 0)
(202.001 -32.0884 0)
(201.261 -31.5021 0)
(200.623 -30.9633 0)
(200.089 -30.4818 0)
(199.645 -30.0684 0)
(199.28 -29.7349 0)
(198.996 -29.4678 0)
(198.8 -29.2255 0)
(198.686 -28.9964 0)
(198.537 -28.8122 0)
(198.39 -28.6894 0)
(198.296 -28.6291 0)
(198.312 -28.6461 0)
(198.394 -28.6842 0)
(198.465 -28.6856 0)
(198.503 -28.6132 0)
(198.488 -28.4662 0)
(198.424 -28.2783 0)
(198.391 -28.09 0)
(198.451 -27.9346 0)
(198.593 -27.8129 0)
(198.787 -27.689 0)
(198.994 -27.5182 0)
(199.172 -27.2753 0)
(199.301 -26.9745 0)
(199.399 -26.6569 0)
(199.488 -26.3509 0)
(199.573 -26.054 0)
(199.659 -25.756 0)
(199.736 -25.4497 0)
(199.777 -25.1352 0)
(199.775 -24.8248 0)
(199.741 -24.5373 0)
(199.7 -24.2914 0)
(199.684 -24.0955 0)
(199.721 -23.9485 0)
(199.839 -23.8556 0)
(200.015 -23.8178 0)
(200.185 -23.8009 0)
(200.3 -23.7735 0)
(200.373 -23.7615 0)
(200.454 -23.8098 0)
(200.575 -23.9241 0)
(200.744 -24.0613 0)
(200.927 -24.2272 0)
(201.074 -24.416 0)
(201.158 -24.5635 0)
(201.184 -24.6979 0)
(201.082 -24.8922 0)
(200.766 -25.1391 0)
(200.495 -25.5577 0)
(200.451 -26.1447 0)
(200.333 -26.8881 0)
(199.633 -27.8063 0)
(198.55 -29.0955 0)
(197.5 -31.1769 0)
(196.931 -34.7332 0)
(200.369 -28.2503 0)
(200.493 -28.0753 0)
(200.358 -27.9755 0)
(200.223 -28.025 0)
(200.182 -28.0851 0)
(200.249 -28.1672 0)
(200.474 -28.2627 0)
(200.79 -28.3825 0)
(201.08 -28.5829 0)
(201.324 -28.8407 0)
(201.511 -29.155 0)
(201.651 -29.5168 0)
(201.798 -29.9238 0)
(201.928 -30.3535 0)
(202.085 -30.8011 0)
(202.232 -31.2532 0)
(202.405 -31.7053 0)
(202.561 -32.1541 0)
(202.732 -32.5974 0)
(202.895 -33.0364 0)
(203.071 -33.4684 0)
(203.253 -33.893 0)
(203.445 -34.3059 0)
(203.645 -34.7019 0)
(203.843 -35.0761 0)
(204.045 -35.4221 0)
(204.236 -35.7414 0)
(204.424 -36.0308 0)
(204.599 -36.2973 0)
(204.772 -36.5383 0)
(204.934 -36.7618 0)
(205.095 -36.9639 0)
(205.25 -37.1514 0)
(205.408 -37.3192 0)
(205.569 -37.4746 0)
(205.74 -37.6127 0)
(205.918 -37.7423 0)
(206.11 -37.8585 0)
(206.311 -37.972 0)
(206.519 -38.0783 0)
(206.724 -38.1801 0)
(206.929 -38.2635 0)
(207.133 -38.321 0)
(207.333 -38.3426 0)
(207.518 -38.3425 0)
(207.677 -38.3431 0)
(207.809 -38.3547 0)
(207.92 -38.3603 0)
(208.014 -38.3354 0)
(208.09 -38.2664 0)
(208.146 -38.1705 0)
(208.174 -38.0499 0)
(208.174 -37.9019 0)
(208.142 -37.7093 0)
(208.067 -37.4837 0)
(207.934 -37.2178 0)
(207.71 -36.8515 0)
(207.335 -36.3449 0)
(206.777 -35.7215 0)
(206.044 -35.0123 0)
(205.185 -34.2626 0)
(204.264 -33.5264 0)
(203.355 -32.8274 0)
(202.507 -32.1825 0)
(201.752 -31.5866 0)
(201.099 -31.0399 0)
(200.549 -30.5511 0)
(200.092 -30.1287 0)
(199.718 -29.786 0)
(199.423 -29.5126 0)
(199.216 -29.2673 0)
(199.086 -29.0358 0)
(198.93 -28.8534 0)
(198.775 -28.7299 0)
(198.664 -28.6626 0)
(198.659 -28.669 0)
(198.732 -28.7048 0)
(198.802 -28.7097 0)
(198.843 -28.6418 0)
(198.834 -28.4995 0)
(198.775 -28.3133 0)
(198.741 -28.1214 0)
(198.801 -27.9601 0)
(198.946 -27.8342 0)
(199.144 -27.7092 0)
(199.356 -27.5409 0)
(199.543 -27.3028 0)
(199.682 -27.007 0)
(199.788 -26.6932 0)
(199.881 -26.3895 0)
(199.964 -26.0937 0)
(200.041 -25.7959 0)
(200.108 -25.491 0)
(200.144 -25.1795 0)
(200.138 -24.8719 0)
(200.101 -24.5854 0)
(200.055 -24.3376 0)
(200.033 -24.1375 0)
(200.057 -23.9849 0)
(200.152 -23.8839 0)
(200.314 -23.8426 0)
(200.482 -23.8282 0)
(200.604 -23.806 0)
(200.68 -23.7958 0)
(200.754 -23.8409 0)
(200.856 -23.949 0)
(201 -24.0802 0)
(201.164 -24.2445 0)
(201.308 -24.4374 0)
(201.412 -24.5913 0)
(201.462 -24.7327 0)
(201.381 -24.9365 0)
(201.084 -25.191 0)
(200.821 -25.5983 0)
(200.778 -26.1796 0)
(200.648 -26.9404 0)
(199.973 -27.8905 0)
(199.01 -29.1975 0)
(198.059 -31.2765 0)
(197.543 -34.8362 0)
(197.972 -40.7553 0)
(200.374 -28.2808 0)
(200.49 -28.1137 0)
(200.356 -28.0186 0)
(200.221 -28.0738 0)
(200.182 -28.1381 0)
(200.249 -28.2236 0)
(200.474 -28.3219 0)
(200.791 -28.4464 0)
(201.087 -28.6507 0)
(201.334 -28.91 0)
(201.528 -29.2263 0)
(201.669 -29.5891 0)
(201.82 -29.9964 0)
(201.949 -30.426 0)
(202.108 -30.873 0)
(202.256 -31.3242 0)
(202.428 -31.7747 0)
(202.585 -32.2214 0)
(202.756 -32.6617 0)
(202.919 -33.097 0)
(203.094 -33.5245 0)
(203.275 -33.944 0)
(203.465 -34.3514 0)
(203.664 -34.7417 0)
(203.861 -35.1103 0)
(204.061 -35.4507 0)
(204.251 -35.7647 0)
(204.439 -36.049 0)
(204.614 -36.3108 0)
(204.786 -36.5467 0)
(204.948 -36.7657 0)
(205.109 -36.9626 0)
(205.264 -37.1463 0)
(205.423 -37.3103 0)
(205.583 -37.4619 0)
(205.757 -37.5959 0)
(205.938 -37.7221 0)
(206.129 -37.8351 0)
(206.325 -37.9439 0)
(206.529 -38.0435 0)
(206.735 -38.1397 0)
(206.944 -38.2228 0)
(207.15 -38.2869 0)
(207.353 -38.3159 0)
(207.543 -38.3164 0)
(207.712 -38.3127 0)
(207.855 -38.3208 0)
(207.975 -38.3271 0)
(208.079 -38.3087 0)
(208.169 -38.2474 0)
(208.241 -38.1551 0)
(208.289 -38.0387 0)
(208.311 -37.8904 0)
(208.307 -37.6975 0)
(208.269 -37.4653 0)
(208.182 -37.2036 0)
(208.016 -36.8684 0)
(207.707 -36.3975 0)
(207.211 -35.7971 0)
(206.526 -35.105 0)
(205.702 -34.366 0)
(204.799 -33.635 0)
(203.892 -32.9341 0)
(203.036 -32.2819 0)
(202.267 -31.6758 0)
(201.597 -31.1188 0)
(201.03 -30.6221 0)
(200.558 -30.1942 0)
(200.17 -29.8452 0)
(199.863 -29.5644 0)
(199.643 -29.3137 0)
(199.496 -29.0786 0)
(199.332 -28.8972 0)
(199.167 -28.7728 0)
(199.042 -28.6997 0)
(199.015 -28.6944 0)
(199.077 -28.7267 0)
(199.146 -28.7347 0)
(199.192 -28.6707 0)
(199.19 -28.5332 0)
(199.137 -28.3494 0)
(199.104 -28.1541 0)
(199.165 -27.9866 0)
(199.313 -27.8558 0)
(199.514 -27.7294 0)
(199.73 -27.5631 0)
(199.923 -27.3297 0)
(200.07 -27.0386 0)
(200.182 -26.7281 0)
(200.277 -26.4267 0)
(200.358 -26.1325 0)
(200.427 -25.8361 0)
(200.485 -25.5337 0)
(200.514 -25.2259 0)
(200.504 -24.9219 0)
(200.464 -24.6372 0)
(200.414 -24.3885 0)
(200.387 -24.1849 0)
(200.401 -24.0277 0)
(200.472 -23.9193 0)
(200.613 -23.8715 0)
(200.775 -23.8567 0)
(200.901 -23.8385 0)
(200.981 -23.8299 0)
(201.051 -23.8709 0)
(201.138 -23.9735 0)
(201.258 -24.0987 0)
(201.403 -24.2572 0)
(201.546 -24.4499 0)
(201.669 -24.6084 0)
(201.741 -24.7585 0)
(201.674 -24.9741 0)
(201.404 -25.2407 0)
(201.161 -25.6382 0)
(201.117 -26.2087 0)
(200.955 -26.9804 0)
(200.308 -27.9601 0)
(199.475 -29.2891 0)
(198.641 -31.372 0)
(198.109 -34.9369 0)
(198.915 -40.7831 0)
(200.377 -28.3142 0)
(200.486 -28.1553 0)
(200.355 -28.0651 0)
(200.219 -28.1258 0)
(200.182 -28.1946 0)
(200.251 -28.2839 0)
(200.476 -28.3853 0)
(200.793 -28.5146 0)
(201.093 -28.723 0)
(201.346 -28.9841 0)
(201.545 -29.3022 0)
(201.688 -29.6661 0)
(201.842 -30.0734 0)
(201.972 -30.5028 0)
(202.132 -30.949 0)
(202.28 -31.399 0)
(202.453 -31.8478 0)
(202.61 -32.2921 0)
(202.782 -32.7291 0)
(202.944 -33.1605 0)
(203.119 -33.583 0)
(203.298 -33.9972 0)
(203.487 -34.3988 0)
(203.684 -34.7832 0)
(203.879 -35.1458 0)
(204.078 -35.4801 0)
(204.267 -35.7883 0)
(204.454 -36.0667 0)
(204.628 -36.3228 0)
(204.801 -36.5526 0)
(204.962 -36.7663 0)
(205.124 -36.9586 0)
(205.28 -37.1374 0)
(205.44 -37.2965 0)
(205.601 -37.4448 0)
(205.771 -37.5773 0)
(205.948 -37.7025 0)
(206.139 -37.8127 0)
(206.337 -37.9162 0)
(206.546 -38.0086 0)
(206.757 -38.0986 0)
(206.966 -38.1787 0)
(207.17 -38.2459 0)
(207.372 -38.2829 0)
(207.567 -38.2888 0)
(207.745 -38.2833 0)
(207.897 -38.2865 0)
(208.027 -38.2906 0)
(208.141 -38.2763 0)
(208.244 -38.2238 0)
(208.332 -38.1395 0)
(208.398 -38.0264 0)
(208.442 -37.8815 0)
(208.463 -37.6888 0)
(208.458 -37.4485 0)
(208.415 -37.1839 0)
(208.305 -36.8748 0)
(208.062 -36.4414 0)
(207.634 -35.8677 0)
(207.005 -35.1961 0)
(206.223 -34.4714 0)
(205.346 -33.7471 0)
(204.448 -33.0457 0)
(203.587 -32.3866 0)
(202.806 -31.7707 0)
(202.119 -31.2027 0)
(201.533 -30.6953 0)
(201.044 -30.2584 0)
(200.64 -29.9025 0)
(200.318 -29.6149 0)
(200.083 -29.359 0)
(199.916 -29.1215 0)
(199.745 -28.9406 0)
(199.57 -28.8153 0)
(199.432 -28.7383 0)
(199.383 -28.7206 0)
(199.433 -28.7477 0)
(199.501 -28.7583 0)
(199.553 -28.6991 0)
(199.56 -28.5671 0)
(199.516 -28.3861 0)
(199.485 -28.1876 0)
(199.547 -28.0135 0)
(199.698 -27.8777 0)
(199.9 -27.7499 0)
(200.118 -27.5855 0)
(200.315 -27.3564 0)
(200.467 -27.0703 0)
(200.582 -26.7637 0)
(200.678 -26.4652 0)
(200.756 -26.173 0)
(200.817 -25.8777 0)
(200.864 -25.5767 0)
(200.886 -25.2714 0)
(200.872 -24.9702 0)
(200.829 -24.6869 0)
(200.778 -24.4369 0)
(200.746 -24.2297 0)
(200.752 -24.068 0)
(200.801 -23.9534 0)
(200.915 -23.8976 0)
(201.065 -23.8815 0)
(201.192 -23.8678 0)
(201.277 -23.8622 0)
(201.346 -23.9021 0)
(201.421 -24.0008 0)
(201.521 -24.1211 0)
(201.65 -24.2764 0)
(201.791 -24.4702 0)
(201.934 -24.6333 0)
(202.024 -24.7915 0)
(201.966 -25.0152 0)
(201.729 -25.2908 0)
(201.52 -25.682 0)
(201.47 -26.2491 0)
(201.255 -27.0341 0)
(200.644 -28.0361 0)
(199.948 -29.3771 0)
(199.233 -31.4744 0)
(198.654 -35.021 0)
(199.893 -40.7937 0)
(200.381 -28.3509 0)
(200.483 -28.2004 0)
(200.354 -28.1152 0)
(200.216 -28.1815 0)
(200.181 -28.255 0)
(200.253 -28.3483 0)
(200.477 -28.4531 0)
(200.795 -28.5874 0)
(201.099 -28.7999 0)
(201.359 -29.0629 0)
(201.562 -29.3829 0)
(201.708 -29.7479 0)
(201.865 -30.1551 0)
(201.996 -30.5841 0)
(202.156 -31.0293 0)
(202.305 -31.4778 0)
(202.479 -31.9244 0)
(202.636 -32.366 0)
(202.809 -32.7994 0)
(202.97 -33.2262 0)
(203.144 -33.6435 0)
(203.322 -34.0518 0)
(203.51 -34.447 0)
(203.705 -34.825 0)
(203.898 -35.1812 0)
(204.096 -35.5092 0)
(204.283 -35.8113 0)
(204.47 -36.0838 0)
(204.643 -36.3348 0)
(204.815 -36.5592 0)
(204.976 -36.7678 0)
(205.138 -36.9548 0)
(205.294 -37.1276 0)
(205.454 -37.2817 0)
(205.614 -37.4264 0)
(205.784 -37.5557 0)
(205.962 -37.6789 0)
(206.153 -37.7873 0)
(206.352 -37.8874 0)
(206.561 -37.9731 0)
(206.772 -38.0546 0)
(206.985 -38.1292 0)
(207.193 -38.1984 0)
(207.395 -38.2438 0)
(207.589 -38.2583 0)
(207.772 -38.2535 0)
(207.935 -38.2516 0)
(208.076 -38.2509 0)
(208.2 -38.2394 0)
(208.314 -38.1974 0)
(208.417 -38.1214 0)
(208.502 -38.0136 0)
(208.565 -37.8724 0)
(208.609 -37.6831 0)
(208.635 -37.44 0)
(208.631 -37.1702 0)
(208.574 -36.8758 0)
(208.396 -36.4746 0)
(208.041 -35.9311 0)
(207.476 -35.2838 0)
(206.745 -34.5768 0)
(205.902 -33.861 0)
(205.02 -33.1609 0)
(204.16 -32.496 0)
(203.368 -31.8724 0)
(202.665 -31.2956 0)
(202.059 -30.7785 0)
(201.551 -30.3332 0)
(201.129 -29.9685 0)
(200.79 -29.6722 0)
(200.537 -29.4093 0)
(200.35 -29.1687 0)
(200.169 -28.9878 0)
(199.984 -28.8609 0)
(199.837 -28.7808 0)
(199.765 -28.7508 0)
(199.802 -28.771 0)
(199.87 -28.7834 0)
(199.928 -28.7282 0)
(199.946 -28.6016 0)
(199.914 -28.4242 0)
(199.889 -28.2234 0)
(199.952 -28.0424 0)
(200.105 -27.9009 0)
(200.308 -27.7712 0)
(200.525 -27.6083 0)
(200.722 -27.3834 0)
(200.875 -27.1016 0)
(200.991 -26.7983 0)
(201.085 -26.5023 0)
(201.158 -26.2125 0)
(201.211 -25.9195 0)
(201.248 -25.6215 0)
(201.261 -25.3198 0)
(201.242 -25.0221 0)
(201.197 -24.7408 0)
(201.145 -24.4901 0)
(201.11 -24.2799 0)
(201.108 -24.1144 0)
(201.139 -23.9952 0)
(201.224 -23.9302 0)
(201.356 -23.9095 0)
(201.482 -23.8981 0)
(201.571 -23.8948 0)
(201.64 -23.9327 0)
(201.707 -24.0279 0)
(201.791 -24.1436 0)
(201.908 -24.2918 0)
(202.052 -24.4823 0)
(202.213 -24.6487 0)
(202.316 -24.8169 0)
(202.265 -25.0513 0)
(202.064 -25.338 0)
(201.903 -25.7261 0)
(201.837 -26.2864 0)
(201.557 -27.0785 0)
(200.995 -28.1007 0)
(200.429 -29.4637 0)
(199.819 -31.5731 0)
(199.204 -35.1047 0)
(200.878 -40.7876 0)
(200.384 -28.3911 0)
(200.479 -28.2493 0)
(200.353 -28.1695 0)
(200.214 -28.2413 0)
(200.181 -28.3194 0)
(200.256 -28.4172 0)
(200.479 -28.5259 0)
(200.796 -28.6653 0)
(201.106 -28.882 0)
(201.373 -29.147 0)
(201.579 -29.4687 0)
(201.729 -29.8349 0)
(201.888 -30.2418 0)
(202.021 -30.6702 0)
(202.182 -31.114 0)
(202.331 -31.5608 0)
(202.506 -32.0049 0)
(202.663 -32.4435 0)
(202.836 -32.8727 0)
(202.997 -33.2948 0)
(203.171 -33.7064 0)
(203.348 -34.1085 0)
(203.533 -34.497 0)
(203.727 -34.8682 0)
(203.919 -35.2177 0)
(204.114 -35.5391 0)
(204.3 -35.8345 0)
(204.486 -36.1003 0)
(204.659 -36.3449 0)
(204.831 -36.5629 0)
(204.992 -36.7655 0)
(205.154 -36.9467 0)
(205.309 -37.1137 0)
(205.47 -37.2621 0)
(205.632 -37.4024 0)
(205.804 -37.5291 0)
(205.981 -37.6513 0)
(206.169 -37.759 0)
(206.366 -37.8569 0)
(206.575 -37.9368 0)
(206.788 -38.01 0)
(207.002 -38.077 0)
(207.208 -38.1436 0)
(207.41 -38.1954 0)
(207.607 -38.2224 0)
(207.797 -38.2231 0)
(207.969 -38.2165 0)
(208.12 -38.2089 0)
(208.254 -38.198 0)
(208.379 -38.1653 0)
(208.497 -38.1001 0)
(208.599 -37.9956 0)
(208.681 -37.8579 0)
(208.746 -37.6774 0)
(208.799 -37.442 0)
(208.83 -37.17 0)
(208.818 -36.8758 0)
(208.704 -36.4985 0)
(208.424 -35.9841 0)
(207.93 -35.3641 0)
(207.259 -34.6791 0)
(206.46 -33.9747 0)
(205.604 -33.2784 0)
(204.751 -32.6097 0)
(203.953 -31.9788 0)
(203.235 -31.393 0)
(202.61 -30.8649 0)
(202.081 -30.4081 0)
(201.64 -30.0335 0)
(201.282 -29.7292 0)
(201.01 -29.4607 0)
(200.8 -29.2164 0)
(200.608 -29.0351 0)
(200.413 -28.907 0)
(200.258 -28.8242 0)
(200.166 -28.7832 0)
(200.189 -28.7942 0)
(200.256 -28.8075 0)
(200.323 -28.7571 0)
(200.354 -28.6369 0)
(200.338 -28.4634 0)
(200.322 -28.2608 0)
(200.386 -28.0727 0)
(200.539 -27.9254 0)
(200.74 -27.794 0)
(200.954 -27.6325 0)
(201.148 -27.4115 0)
(201.299 -27.1344 0)
(201.411 -26.835 0)
(201.5 -26.542 0)
(201.567 -26.2546 0)
(201.611 -25.9633 0)
(201.637 -25.6669 0)
(201.641 -25.3673 0)
(201.618 -25.0721 0)
(201.572 -24.7922 0)
(201.519 -24.5408 0)
(201.482 -24.3275 0)
(201.472 -24.1583 0)
(201.488 -24.0353 0)
(201.544 -23.962 0)
(201.654 -23.9351 0)
(201.774 -23.9255 0)
(201.866 -23.9258 0)
(201.936 -23.9642 0)
(201.998 -24.0576 0)
(202.071 -24.1701 0)
(202.181 -24.3147 0)
(202.33 -24.5039 0)
(202.507 -24.6734 0)
(202.62 -24.8504 0)
(202.575 -25.092 0)
(202.413 -25.3849 0)
(202.312 -25.7732 0)
(202.215 -26.3367 0)
(201.867 -27.1395 0)
(201.369 -28.1709 0)
(200.925 -29.5431 0)
(200.383 -31.6734 0)
(199.787 -35.1744 0)
(201.851 -40.7479 0)
(200.385 -28.435 0)
(200.475 -28.3022 0)
(200.353 -28.2281 0)
(200.211 -28.3055 0)
(200.181 -28.3882 0)
(200.259 -28.4908 0)
(200.481 -28.6037 0)
(200.798 -28.7485 0)
(201.112 -28.9693 0)
(201.387 -29.2365 0)
(201.597 -29.5601 0)
(201.751 -29.9272 0)
(201.913 -30.3336 0)
(202.046 -30.7613 0)
(202.209 -31.2034 0)
(202.358 -31.648 0)
(202.534 -32.0892 0)
(202.691 -32.5243 0)
(202.865 -32.949 0)
(203.025 -33.3658 0)
(203.198 -33.771 0)
(203.373 -34.1664 0)
(203.558 -34.5477 0)
(203.749 -34.9116 0)
(203.939 -35.2539 0)
(204.133 -35.5682 0)
(204.317 -35.8568 0)
(204.502 -36.1157 0)
(204.675 -36.3542 0)
(204.847 -36.5669 0)
(205.008 -36.7649 0)
(205.168 -36.9395 0)
(205.323 -37.0994 0)
(205.484 -37.2409 0)
(205.646 -37.376 0)
(205.817 -37.4989 0)
(205.994 -37.6192 0)
(206.182 -37.7258 0)
(206.379 -37.8226 0)
(206.589 -37.8991 0)
(206.804 -37.9655 0)
(207.021 -38.0245 0)
(207.233 -38.0874 0)
(207.436 -38.143 0)
(207.631 -38.1809 0)
(207.819 -38.1896 0)
(207.999 -38.1801 0)
(208.161 -38.1661 0)
(208.305 -38.1539 0)
(208.44 -38.1267 0)
(208.57 -38.0678 0)
(208.69 -37.9673 0)
(208.791 -37.8342 0)
(208.875 -37.6649 0)
(208.95 -37.4475 0)
(209.011 -37.1803 0)
(209.038 -36.8784 0)
(208.981 -36.511 0)
(208.776 -36.0241 0)
(208.362 -35.4345 0)
(207.759 -34.7752 0)
(207.014 -34.086 0)
(206.193 -33.3961 0)
(205.356 -32.7266 0)
(204.558 -32.0905 0)
(203.829 -31.4968 0)
(203.186 -30.9591 0)
(202.636 -30.4938 0)
(202.173 -30.1091 0)
(201.795 -29.7953 0)
(201.502 -29.5187 0)
(201.27 -29.2698 0)
(201.065 -29.0872 0)
(200.859 -28.9573 0)
(200.697 -28.8712 0)
(200.588 -28.8209 0)
(200.597 -28.821 0)
(200.665 -28.8338 0)
(200.743 -28.7872 0)
(200.789 -28.6732 0)
(200.791 -28.5043 0)
(200.788 -28.3013 0)
(200.854 -28.1065 0)
(201.004 -27.9526 0)
(201.2 -27.8186 0)
(201.408 -27.6581 0)
(201.596 -27.4409 0)
(201.741 -27.1678 0)
(201.846 -26.8713 0)
(201.927 -26.5808 0)
(201.986 -26.2962 0)
(202.02 -26.008 0)
(202.035 -25.715 0)
(202.03 -25.419 0)
(202.002 -25.127 0)
(201.954 -24.849 0)
(201.902 -24.5972 0)
(201.862 -24.3814 0)
(201.844 -24.2088 0)
(201.848 -24.083 0)
(201.878 -24.0027 0)
(201.962 -23.9669 0)
(202.073 -23.9563 0)
(202.166 -23.9585 0)
(202.237 -23.996 0)
(202.298 -24.0875 0)
(202.365 -24.1968 0)
(202.475 -24.3339 0)
(202.633 -24.5176 0)
(202.821 -24.6899 0)
(202.939 -24.8778 0)
(202.901 -25.1288 0)
(202.783 -25.429 0)
(202.742 -25.8204 0)
(202.6 -26.3851 0)
(202.2 -27.1922 0)
(201.776 -28.2322 0)
(201.443 -29.6213 0)
(200.921 -31.7745 0)
(200.411 -35.2487 0)
(202.805 -40.6963 0)
(200.387 -28.4831 0)
(200.47 -28.3595 0)
(200.352 -28.2917 0)
(200.208 -28.3748 0)
(200.181 -28.4619 0)
(200.263 -28.5696 0)
(200.483 -28.6873 0)
(200.8 -28.8376 0)
(201.119 -29.0627 0)
(201.402 -29.3319 0)
(201.616 -29.6574 0)
(201.773 -30.0253 0)
(201.939 -30.431 0)
(202.073 -30.8576 0)
(202.238 -31.2977 0)
(202.387 -31.7398 0)
(202.563 -32.1776 0)
(202.72 -32.6086 0)
(202.894 -33.0283 0)
(203.054 -33.4393 0)
(203.226 -33.8379 0)
(203.4 -34.2262 0)
(203.583 -34.5999 0)
(203.773 -34.9561 0)
(203.961 -35.2908 0)
(204.153 -35.5976 0)
(204.336 -35.879 0)
(204.519 -36.1304 0)
(204.691 -36.3614 0)
(204.863 -36.5678 0)
(205.026 -36.7595 0)
(205.187 -36.927 0)
(205.342 -37.0806 0)
(205.502 -37.2158 0)
(205.665 -37.3451 0)
(205.837 -37.4631 0)
(206.014 -37.5804 0)
(206.202 -37.6858 0)
(206.397 -37.7829 0)
(206.603 -37.8594 0)
(206.817 -37.9224 0)
(207.035 -37.9734 0)
(207.247 -38.0288 0)
(207.45 -38.084 0)
(207.647 -38.1309 0)
(207.841 -38.1499 0)
(208.025 -38.1416 0)
(208.193 -38.1215 0)
(208.348 -38.1056 0)
(208.495 -38.0808 0)
(208.638 -38.0264 0)
(208.774 -37.9262 0)
(208.894 -37.7975 0)
(208.998 -37.6398 0)
(209.092 -37.4422 0)
(209.176 -37.1879 0)
(209.236 -36.8787 0)
(209.228 -36.5122 0)
(209.093 -36.0508 0)
(208.763 -35.492 0)
(208.237 -34.8623 0)
(207.556 -34.1928 0)
(206.781 -33.5127 0)
(205.97 -32.8463 0)
(205.18 -32.2065 0)
(204.444 -31.6056 0)
(203.787 -31.0568 0)
(203.217 -30.5792 0)
(202.733 -30.1842 0)
(202.333 -29.8614 0)
(202.017 -29.5785 0)
(201.762 -29.3251 0)
(201.542 -29.1401 0)
(201.328 -29.0088 0)
(201.158 -28.9192 0)
(201.037 -28.8619 0)
(201.031 -28.849 0)
(201.101 -28.8596 0)
(201.191 -28.8174 0)
(201.255 -28.7105 0)
(201.279 -28.5466 0)
(201.292 -28.3436 0)
(201.358 -28.1426 0)
(201.502 -27.982 0)
(201.691 -27.8457 0)
(201.89 -27.6864 0)
(202.069 -27.473 0)
(202.203 -27.2045 0)
(202.297 -26.9116 0)
(202.368 -26.6238 0)
(202.416 -26.3418 0)
(202.44 -26.0558 0)
(202.444 -25.7645 0)
(202.431 -25.4703 0)
(202.399 -25.1804 0)
(202.35 -24.9037 0)
(202.298 -24.6515 0)
(202.254 -24.4333 0)
(202.229 -24.2575 0)
(202.22 -24.1286 0)
(202.231 -24.0432 0)
(202.288 -23.9983 0)
(202.384 -23.9852 0)
(202.474 -23.9897 0)
(202.547 -24.0284 0)
(202.608 -24.1195 0)
(202.675 -24.227 0)
(202.791 -24.3607 0)
(202.96 -24.5419 0)
(203.155 -24.7166 0)
(203.273 -24.9127 0)
(203.247 -25.1702 0)
(203.179 -25.4738 0)
(203.186 -25.8696 0)
(202.987 -26.4477 0)
(202.561 -27.2631 0)
(202.218 -28.2974 0)
(201.976 -29.7013 0)
(201.445 -31.8754 0)
(201.081 -35.3064 0)
(203.737 -40.6111 0)
(200.387 -28.5354 0)
(200.465 -28.4213 0)
(200.351 -28.3604 0)
(200.205 -28.4493 0)
(200.183 -28.541 0)
(200.267 -28.6538 0)
(200.484 -28.7769 0)
(200.803 -28.9328 0)
(201.126 -29.1621 0)
(201.418 -29.4334 0)
(201.635 -29.7609 0)
(201.797 -30.1294 0)
(201.965 -30.5342 0)
(202.101 -30.9594 0)
(202.267 -31.3969 0)
(202.416 -31.836 0)
(202.593 -32.2699 0)
(202.75 -32.6964 0)
(202.924 -33.1104 0)
(203.084 -33.5151 0)
(203.255 -33.9065 0)
(203.428 -34.287 0)
(203.609 -34.6525 0)
(203.797 -35.0004 0)
(203.983 -35.327 0)
(204.174 -35.6258 0)
(204.355 -35.8995 0)
(204.537 -36.1434 0)
(204.707 -36.3671 0)
(204.879 -36.5686 0)
(205.042 -36.7551 0)
(205.203 -36.9164 0)
(205.358 -37.0634 0)
(205.518 -37.1907 0)
(205.681 -37.3125 0)
(205.854 -37.4236 0)
(206.031 -37.5358 0)
(206.217 -37.6389 0)
(206.411 -37.7372 0)
(206.616 -37.8169 0)
(206.829 -37.8814 0)
(207.05 -37.9274 0)
(207.267 -37.9744 0)
(207.475 -38.0256 0)
(207.67 -38.0747 0)
(207.856 -38.1014 0)
(208.04 -38.0984 0)
(208.22 -38.0762 0)
(208.387 -38.0558 0)
(208.544 -38.0262 0)
(208.698 -37.9695 0)
(208.849 -37.8716 0)
(208.989 -37.7431 0)
(209.112 -37.5949 0)
(209.225 -37.4175 0)
(209.33 -37.1787 0)
(209.414 -36.8688 0)
(209.446 -36.5015 0)
(209.371 -36.0641 0)
(209.125 -35.5377 0)
(208.684 -34.9383 0)
(208.077 -34.2926 0)
(207.36 -33.6262 0)
(206.586 -32.9661 0)
(205.812 -32.3265 0)
(205.077 -31.7201 0)
(204.41 -31.1626 0)
(203.822 -30.6767 0)
(203.317 -30.2713 0)
(202.895 -29.938 0)
(202.557 -29.6458 0)
(202.281 -29.3873 0)
(202.043 -29.1985 0)
(201.822 -29.0653 0)
(201.643 -28.9713 0)
(201.516 -28.9082 0)
(201.497 -28.882 0)
(201.569 -28.8883 0)
(201.673 -28.8492 0)
(201.757 -28.7488 0)
(201.805 -28.5904 0)
(201.835 -28.3892 0)
(201.902 -28.1834 0)
(202.035 -28.0154 0)
(202.213 -27.8755 0)
(202.4 -27.7168 0)
(202.566 -27.5069 0)
(202.688 -27.2423 0)
(202.768 -26.952 0)
(202.824 -26.6664 0)
(202.861 -26.3873 0)
(202.874 -26.1051 0)
(202.867 -25.8176 0)
(202.846 -25.5271 0)
(202.81 -25.2403 0)
(202.761 -24.9654 0)
(202.71 -24.7129 0)
(202.662 -24.4927 0)
(202.626 -24.3138 0)
(202.606 -24.1821 0)
(202.602 -24.093 0)
(202.635 -24.0393 0)
(202.711 -24.0207 0)
(202.794 -24.0247 0)
(202.867 -24.0626 0)
(202.931 -24.1521 0)
(203.004 -24.2573 0)
(203.133 -24.3831 0)
(203.313 -24.5581 0)
(203.509 -24.7366 0)
(203.624 -24.9428 0)
(203.613 -25.2074 0)
(203.6 -25.5145 0)
(203.632 -25.9184 0)
(203.375 -26.5078 0)
(202.958 -27.3211 0)
(202.7 -28.359 0)
(202.514 -29.7787 0)
(201.97 -31.9738 0)
(201.792 -35.371 0)
(204.657 -40.5222 0)
(200.386 -28.5925 0)
(200.458 -28.4884 0)
(200.351 -28.4351 0)
(200.203 -28.5299 0)
(200.189 -28.6263 0)
(200.271 -28.7441 0)
(200.485 -28.873 0)
(200.806 -29.0348 0)
(201.134 -29.2683 0)
(201.434 -29.5416 0)
(201.655 -29.871 0)