/*--------------------------------*- C++ -*----------------------------------*\
| =========                 |                                                 |
| \\      /  F ield         | OpenFOAM: The Open Source CFD Toolbox           |
|  \\    /   O peration     | Version:  2412                                  |
|   \\  /    A nd           | Website:  www.openfoam.com                      |
|    \\/     M anipulation  |                                                 |
\*---------------------------------------------------------------------------*/
FoamFile
{
    version     2.0;
    format      ascii;
    arch        "LSB;label=32;scalar=64";
    class       volScalarField;
    location    "0.027";
    object      T;
}
// * * * * * * * * * * * * * * * * * * * * * * * * * * * * * * * * * * * * * //

dimensions      [0 0 0 1 0 0 0];

internalField   nonuniform List<scalar> 
9763
(
227.997
229.676
227.995
229.755
227.982
229.763
227.957
229.672
227.889
229.537
227.789
229.378
227.679
229.219
227.581
229.069
227.496
228.932
227.419
228.806
227.349
228.689
227.29
228.575
227.235
228.467
227.181
228.36
227.127
228.255
227.073
228.149
227.017
228.042
226.96
227.933
226.899
227.821
226.834
227.704
226.765
227.582
226.691
227.455
226.614
227.324
226.533
227.187
226.45
227.047
226.366
226.904
226.28
226.759
226.194
226.612
226.105
226.465
226.013
226.32
225.912
226.177
225.799
226.035
225.678
225.891
225.551
225.743
225.422
225.588
225.29
225.43
225.155
225.268
225.018
225.104
224.879
224.934
224.743
224.754
224.563
224.361
224.156
240.986
227.328
227.883
227.946
227.841
227.572
227.011
226.168
225.405
224.825
224.449
224.18
223.862
223.42
222.903
222.354
221.818
221.332
220.953
220.705
220.52
220.379
220.259
220.148
220.038
219.924
219.805
219.68
219.554
219.428
219.304
219.182
219.063
218.95
218.846
218.751
218.664
218.587
218.522
218.469
218.43
218.405
218.394
218.398
218.417
218.448
218.492
218.551
218.625
218.71
218.803
218.902
219.004
219.112
219.228
219.348
219.47
219.6
219.725
219.877
220.022
220.191
220.375
220.568
220.769
220.983
221.197
221.412
221.628
221.839
222.046
222.254
222.462
222.67
222.882
223.094
223.304
223.512
223.718
223.92
224.122
224.323
224.526
224.732
224.938
225.141
225.34
225.534
225.719
225.894
226.055
226.21
226.359
226.503
226.64
226.773
226.903
227.028
227.149
227.265
227.374
227.476
227.572
227.663
227.749
227.836
227.924
228.019
228.117
228.219
228.333
228.451
228.574
228.693
228.797
228.875
228.922
228.938
228.899
228.858
228.65
240.923
227.328
227.872
227.94
227.836
227.571
227.013
226.172
225.405
224.823
224.443
224.171
223.852
223.408
222.89
222.34
221.804
221.32
220.945
220.698
220.515
220.375
220.255
220.143
220.032
219.918
219.797
219.67
219.541
219.413
219.287
219.163
219.041
218.925
218.817
218.718
218.627
218.546
218.478
218.421
218.377
218.347
218.332
218.332
218.346
218.374
218.414
218.468
218.538
218.621
218.712
218.809
218.91
219.016
219.129
219.246
219.367
219.494
219.619
219.769
219.911
220.084
220.264
220.459
220.658
220.867
221.078
221.289
221.503
221.712
221.919
222.129
222.336
222.543
222.752
222.958
223.161
223.36
223.554
223.744
223.932
224.123
224.321
224.527
224.74
224.954
225.167
225.375
225.574
225.762
225.934
226.09
226.231
226.363
226.49
226.613
226.733
226.852
226.966
227.076
227.179
227.276
227.366
227.451
227.532
227.614
227.698
227.789
227.888
227.994
228.114
228.252
228.405
228.564
228.714
228.836
228.918
228.959
228.978
228.99
228.991
240.888
227.325
227.862
227.936
227.833
227.57
227.016
226.177
225.405
224.82
224.438
224.162
223.841
223.397
222.878
222.327
221.791
221.309
220.937
220.691
220.51
220.37
220.251
220.138
220.027
219.911
219.788
219.66
219.529
219.398
219.27
219.143
219.019
218.9
218.788
218.684
218.589
218.505
218.432
218.372
218.323
218.288
218.269
218.264
218.273
218.297
218.332
218.382
218.448
218.527
218.616
218.711
218.811
218.915
219.025
219.139
219.257
219.38
219.504
219.651
219.791
219.964
220.14
220.333
220.532
220.737
220.942
221.148
221.358
221.563
221.769
221.978
222.184
222.391
222.597
222.8
222.997
223.19
223.377
223.56
223.742
223.928
224.122
224.324
224.53
224.735
224.935
225.126
225.304
225.469
225.621
225.762
225.893
226.019
226.141
226.261
226.38
226.496
226.609
226.716
226.817
226.91
226.997
227.077
227.153
227.23
227.307
227.391
227.483
227.583
227.699
227.832
227.98
228.133
228.279
228.405
228.502
228.569
228.616
228.651
228.677
240.872
227.32
227.853
227.931
227.829
227.569
227.018
226.181
225.405
224.818
224.433
224.154
223.831
223.386
222.866
222.314
221.779
221.299
220.93
220.686
220.505
220.367
220.247
220.134
220.021
219.904
219.78
219.65
219.517
219.385
219.254
219.125
218.998
218.875
218.76
218.652
218.553
218.465
218.389
218.324
218.271
218.231
218.208
218.198
218.202
218.222
218.254
218.299
218.36
218.435
218.521
218.614
218.713
218.816
218.924
219.035
219.15
219.268
219.389
219.534
219.671
219.845
220.019
220.212
220.408
220.609
220.808
221.007
221.21
221.41
221.612
221.819
222.022
222.228
222.432
222.633
222.828
223.02
223.202
223.38
223.554
223.732
223.918
224.112
224.309
224.505
224.694
224.87
225.03
225.174
225.305
225.426
225.542
225.655
225.768
225.881
225.994
226.106
226.215
226.319
226.417
226.507
226.591
226.668
226.743
226.817
226.892
226.976
227.066
227.167
227.284
227.419
227.568
227.722
227.87
228.001
228.108
228.188
228.245
228.286
228.314
240.872
227.317
227.845
227.927
227.825
227.569
227.021
226.186
225.405
224.816
224.428
224.146
223.822
223.375
222.854
222.302
221.767
221.289
220.923
220.68
220.501
220.363
220.243
220.13
220.016
219.898
219.773
219.641
219.506
219.372
219.239
219.108
218.978
218.852
218.733
218.621
218.518
218.426
218.347
218.278
218.22
218.176
218.147
218.134
218.134
218.148
218.176
218.218
218.274
218.345
218.428
218.518
218.615
218.717
218.823
218.932
219.044
219.158
219.278
219.417
219.552
219.725
219.895
220.087
220.281
220.478
220.673
220.867
221.064
221.258
221.455
221.656
221.854
222.055
222.256
222.455
222.649
222.839
223.019
223.195
223.367
223.543
223.726
223.913
224.1
224.284
224.459
224.619
224.764
224.894
225.012
225.122
225.227
225.332
225.437
225.544
225.651
225.758
225.862
225.961
226.054
226.139
226.218
226.29
226.36
226.428
226.498
226.576
226.66
226.755
226.871
227.005
227.154
227.311
227.463
227.599
227.709
227.791
227.847
227.885
227.911
240.878
227.314
227.836
227.922
227.822
227.568
227.023
226.19
225.406
224.814
224.424
224.138
223.812
223.365
222.843
222.29
221.755
221.279
220.917
220.675
220.497
220.36
220.24
220.126
220.011
219.892
219.765
219.632
219.495
219.359
219.224
219.09
218.958
218.829
218.707
218.591
218.484
218.388
218.305
218.233
218.171
218.122
218.088
218.07
218.066
218.075
218.1
218.138
218.19
218.256
218.335
218.423
218.518
218.619
218.724
218.831
218.94
219.051
219.167
219.302
219.435
219.604
219.771
219.96
220.152
220.346
220.537
220.728
220.921
221.11
221.302
221.496
221.688
221.882
222.077
222.272
222.463
222.651
222.83
223.005
223.178
223.354
223.536
223.72
223.901
224.075
224.237
224.383
224.513
224.628
224.734
224.832
224.929
225.027
225.128
225.231
225.337
225.443
225.547
225.645
225.737
225.821
225.898
225.967
226.034
226.097
226.164
226.235
226.311
226.404
226.513
226.644
226.79
226.946
227.098
227.234
227.345
227.428
227.482
227.513
227.519
240.869
227.31
227.827
227.917
227.818
227.567
227.026
226.194
225.406
224.812
224.419
224.13
223.803
223.354
222.832
222.278
221.744
221.269
220.91
220.67
220.493
220.356
220.236
220.121
220.006
219.886
219.758
219.623
219.485
219.346
219.21
219.073
218.938
218.807
218.681
218.561
218.449
218.35
218.263
218.187
218.121
218.067
218.028
218.006
217.997
218.002
218.022
218.056
218.104
218.166
218.241
218.326
218.418
218.518
218.622
218.727
218.834
218.942
219.055
219.184
219.314
219.48
219.642
219.828
220.017
220.207
220.396
220.585
220.776
220.963
221.153
221.342
221.528
221.716
221.904
222.09
222.275
222.456
222.632
222.806
222.981
223.162
223.346
223.529
223.705
223.871
224.021
224.154
224.272
224.377
224.474
224.567
224.66
224.756
224.856
224.961
225.068
225.176
225.282
225.382
225.475
225.56
225.637
225.706
225.77
225.831
225.896
225.963
226.036
226.125
226.233
226.36
226.504
226.659
226.813
226.951
227.063
227.144
227.199
227.24
227.265
240.854
227.306
227.817
227.913
227.814
227.566
227.028
226.199
225.407
224.81
224.414
224.122
223.793
223.343
222.82
222.266
221.732
221.26
220.904
220.664
220.489
220.353
220.233
220.117
220.001
219.88
219.751
219.614
219.474
219.334
219.195
219.056
218.918
218.784
218.654
218.53
218.415
218.312
218.221
218.141
218.07
218.011
217.967
217.94
217.928
217.929
217.943
217.973
218.016
218.075
218.145
218.226
218.316
218.414
218.517
218.621
218.727
218.832
218.941
219.065
219.191
219.352
219.509
219.692
219.877
220.063
220.249
220.437
220.626
220.813
221.003
221.189
221.372
221.555
221.736
221.914
222.09
222.262
222.432
222.602
222.777
222.958
223.143
223.324
223.496
223.653
223.792
223.914
224.019
224.115
224.205
224.293
224.385
224.482
224.585
224.694
224.806
224.918
225.028
225.132
225.227
225.313
225.39
225.458
225.521
225.58
225.641
225.705
225.776
225.862
225.966
226.089
226.231
226.383
226.536
226.675
226.787
226.865
226.916
226.954
226.992
240.844
227.301
227.807
227.908
227.81
227.565
227.031
226.203
225.407
224.808
224.41
224.114
223.783
223.332
222.808
222.253
221.72
221.25
220.897
220.659
220.485
220.349
220.229
220.113
219.996
219.873
219.743
219.605
219.463
219.321
219.18
219.039
218.898
218.76
218.627
218.499
218.38
218.273
218.178
218.093
218.018
217.954
217.905
217.872
217.856
217.853
217.862
217.887
217.927
217.98
218.047
218.124
218.21
218.306
218.407
218.511
218.615
218.718
218.824
218.943
219.064
219.22
219.372
219.55
219.731
219.913
220.096
220.282
220.468
220.655
220.844
221.029
221.211
221.392
221.568
221.741
221.909
222.072
222.234
222.399
222.571
222.75
222.933
223.109
223.274
223.421
223.549
223.659
223.754
223.842
223.928
224.014
224.107
224.207
224.314
224.427
224.543
224.658
224.77
224.875
224.97
225.054
225.127
225.192
225.249
225.304
225.357
225.414
225.479
225.558
225.654
225.769
225.903
226.049
226.198
226.334
226.446
226.524
226.569
226.589
226.595
240.821
227.296
227.798
227.903
227.806
227.564
227.033
226.207
225.408
224.805
224.405
224.105
223.772
223.321
222.796
222.241
221.708
221.24
220.891
220.654
220.481
220.346
220.226
220.109
219.991
219.867
219.736
219.596
219.453
219.309
219.165
219.022
218.878
218.737
218.6
218.468
218.345
218.233
218.134
218.046
217.966
217.897
217.842
217.804
217.783
217.775
217.78
217.8
217.835
217.885
217.947
218.019
218.102
218.194
218.294
218.397
218.501
218.603
218.706
218.82
218.936
219.087
219.233
219.407
219.583
219.761
219.94
220.122
220.304
220.487
220.673
220.855
221.036
221.215
221.39
221.56
221.726
221.885
222.042
222.202
222.368
222.54
222.714
222.879
223.032
223.167
223.281
223.381
223.469
223.552
223.637
223.725
223.823
223.93
224.043
224.162
224.282
224.402
224.515
224.62
224.712
224.792
224.862
224.921
224.975
225.025
225.073
225.126
225.186
225.259
225.349
225.459
225.589
225.731
225.876
226.011
226.121
226.2
226.244
226.262
226.265
240.79
227.29
227.788
227.898
227.802
227.563
227.036
226.212
225.408
224.803
224.4
224.097
223.762
223.31
222.784
222.228
221.696
221.23
220.884
220.649
220.477
220.343
220.222
220.104
219.985
219.861
219.728
219.588
219.442
219.296
219.151
219.004
218.857
218.713
218.573
218.437
218.31
218.194
218.091
217.997
217.913
217.838
217.777
217.734
217.708
217.696
217.696
217.711
217.742
217.787
217.844
217.912
217.99
218.079
218.175
218.278
218.382
218.485
218.586
218.696
218.807
218.952
219.092
219.26
219.432
219.606
219.781
219.958
220.133
220.31
220.489
220.663
220.84
221.016
221.19
221.36
221.527
221.687
221.844
222.003
222.164
222.329
222.491
222.642
222.78
222.9
223.002
223.093
223.176
223.258
223.347
223.442
223.549
223.663
223.784
223.909
224.036
224.158
224.27
224.371
224.459
224.534
224.598
224.654
224.703
224.748
224.793
224.841
224.897
224.967
225.054
225.161
225.287
225.428
225.571
225.705
225.816
225.895
225.941
225.959
225.962
240.767
227.285
227.778
227.893
227.798
227.562
227.038
226.216
225.409
224.801
224.395
224.088
223.751
223.298
222.772
222.215
221.684
221.22
220.877
220.644
220.474
220.339
220.218
220.1
219.98
219.855
219.721
219.579
219.432
219.284
219.136
218.986
218.837
218.689
218.545
218.406
218.274
218.154
218.047
217.949
217.859
217.779
217.713
217.664
217.632
217.615
217.611
217.62
217.647
217.687
217.741
217.805
217.878
217.962
218.055
218.156
218.259
218.363
218.464
218.571
218.68
218.818
218.953
219.115
219.283
219.451
219.621
219.791
219.959
220.127
220.297
220.462
220.63
220.799
220.968
221.137
221.305
221.469
221.629
221.789
221.948
222.105
222.254
222.39
222.51
222.614
222.705
222.791
222.873
222.959
223.056
223.162
223.279
223.402
223.532
223.663
223.791
223.911
224.019
224.114
224.196
224.265
224.324
224.376
224.422
224.465
224.508
224.554
224.608
224.676
224.763
224.87
224.996
225.137
225.281
225.416
225.529
225.61
225.659
225.681
225.686
240.765
227.28
227.767
227.887
227.794
227.561
227.041
226.221
225.41
224.798
224.391
224.08
223.741
223.287
222.759
222.202
221.671
221.21
220.871
220.639
220.47
220.336
220.215
220.096
219.975
219.849
219.714
219.57
219.421
219.271
219.121
218.969
218.816
218.666
218.518
218.375
218.239
218.115
218.002
217.9
217.806
217.72
217.647
217.592
217.554
217.533
217.524
217.528
217.549
217.586
217.635
217.695
217.764
217.842
217.931
218.029
218.132
218.237
218.338
218.444
218.551
218.683
218.814
218.97
219.131
219.294
219.459
219.624
219.786
219.948
220.11
220.268
220.427
220.586
220.745
220.906
221.069
221.231
221.393
221.554
221.712
221.864
222.002
222.125
222.231
222.323
222.407
222.491
222.575
222.668
222.776
222.893
223.019
223.152
223.289
223.422
223.546
223.66
223.76
223.846
223.92
223.982
224.035
224.082
224.125
224.166
224.206
224.251
224.305
224.372
224.459
224.566
224.694
224.837
224.983
225.12
225.235
225.32
225.372
225.397
225.405
240.77
227.275
227.757
227.882
227.79
227.56
227.044
226.225
225.411
224.796
224.386
224.071
223.73
223.275
222.747
222.189
221.659
221.2
220.864
220.635
220.466
220.333
220.211
220.092
219.97
219.843
219.706
219.561
219.411
219.259
219.106
218.951
218.796
218.642
218.491
218.344
218.204
218.075
217.958
217.852
217.752
217.66
217.582
217.52
217.477
217.45
217.437
217.436
217.451
217.483
217.529
217.585
217.649
217.722
217.806
217.899
218
218.105
218.209
218.314
218.422
218.549
218.678
218.827
218.981
219.138
219.298
219.458
219.617
219.776
219.935
220.09
220.243
220.393
220.541
220.689
220.841
220.993
221.146
221.301
221.453
221.597
221.727
221.84
221.938
222.025
222.108
222.194
222.285
222.388
222.504
222.63
222.766
222.905
223.042
223.169
223.286
223.39
223.482
223.56
223.626
223.682
223.73
223.774
223.813
223.853
223.893
223.937
223.99
224.058
224.146
224.256
224.387
224.532
224.682
224.822
224.941
225.029
225.085
225.114
225.126
240.771
227.27
227.747
227.877
227.786
227.559
227.046
226.229
225.412
224.794
224.381
224.062
223.719
223.263
222.734
222.177
221.647
221.191
220.857
220.63
220.463
220.329
220.208
220.088
219.965
219.837
219.699
219.553
219.401
219.247
219.091
218.934
218.776
218.618
218.464
218.313
218.169
218.035
217.914
217.803
217.698
217.601
217.516
217.448
217.398
217.365
217.348
217.342
217.351
217.379
217.42
217.472
217.533
217.601
217.679
217.767
217.864
217.968
218.073
218.179
218.29
218.414
218.542
218.684
218.83
218.98
219.134
219.29
219.447
219.607
219.766
219.921
220.073
220.219
220.359
220.496
220.633
220.769
220.908
221.048
221.189
221.323
221.445
221.552
221.647
221.733
221.819
221.911
222.01
222.122
222.246
222.38
222.521
222.659
222.789
222.907
223.014
223.106
223.186
223.255
223.312
223.362
223.405
223.445
223.482
223.522
223.562
223.605
223.659
223.728
223.817
223.929
224.063
224.212
224.366
224.51
224.632
224.723
224.782
224.814
224.83
240.762
227.265
227.736
227.871
227.782
227.558
227.049
226.234
225.413
224.792
224.377
224.053
223.708
223.251
222.722
222.164
221.635
221.181
220.851
220.625
220.459
220.326
220.204
220.084
219.96
219.831
219.692
219.544
219.391
219.234
219.076
218.917
218.756
218.595
218.437
218.282
218.134
217.996
217.87
217.754
217.644
217.541
217.45
217.376
217.32
217.281
217.258
217.248
217.252
217.273
217.311
217.359
217.416
217.48
217.552
217.635
217.727
217.827
217.933
218.038
218.154
218.274
218.404
218.54
218.68
218.823
218.971
219.122
219.276
219.433
219.591
219.749
219.902
220.048
220.186
220.318
220.445
220.566
220.687
220.808
220.932
221.051
221.163
221.265
221.358
221.446
221.537
221.636
221.744
221.863
221.996
222.135
222.275
222.406
222.526
222.633
222.727
222.807
222.876
222.936
222.988
223.033
223.073
223.11
223.146
223.184
223.224
223.268
223.322
223.392
223.482
223.595
223.731
223.884
224.042
224.19
224.315
224.409
224.471
224.506
224.524
240.737
227.259
227.726
227.866
227.778
227.556
227.051
226.238
225.415
224.791
224.372
224.044
223.697
223.239
222.709
222.151
221.623
221.171
220.844
220.621
220.455
220.323
220.201
220.08
219.955
219.825
219.685
219.536
219.381
219.222
219.062
218.899
218.736
218.572
218.41
218.252
218.099
217.956
217.825
217.705
217.59
217.482
217.384
217.303
217.241
217.196
217.167
217.153
217.151
217.166
217.199
217.244
217.297
217.357
217.424
217.501
217.587
217.683
217.787
217.89
218.01
218.129
218.262
218.395
218.53
218.667
218.808
218.952
219.099
219.25
219.402
219.557
219.71
219.858
220
220.135
220.26
220.373
220.483
220.591
220.7
220.804
220.903
220.996
221.085
221.173
221.268
221.372
221.487
221.615
221.753
221.891
222.023
222.143
222.25
222.343
222.423
222.491
222.553
222.607
222.655
222.697
222.735
222.77
222.805
222.841
222.881
222.925
222.978
223.047
223.137
223.251
223.388
223.543
223.704
223.856
223.984
224.081
224.144
224.181
224.2
240.713
227.253
227.715
227.86
227.774
227.555
227.054
226.243
225.417
224.79
224.367
224.035
223.686
223.227
222.697
222.138
221.611
221.162
220.838
220.616
220.452
220.32
220.197
220.076
219.951
219.819
219.678
219.528
219.371
219.21
219.047
218.882
218.716
218.549
218.384
218.221
218.064
217.917
217.781
217.656
217.536
217.422
217.319
217.231
217.162
217.111
217.076
217.057
217.05
217.059
217.087
217.128
217.177
217.233
217.296
217.368
217.448
217.538
217.638
217.738
217.862
217.977
218.114
218.245
218.379
218.512
218.647
218.783
218.92
219.058
219.198
219.341
219.487
219.634
219.778
219.919
220.05
220.168
220.279
220.384
220.486
220.579
220.667
220.75
220.833
220.917
221.011
221.116
221.236
221.369
221.506
221.64
221.762
221.87
221.963
222.042
222.111
222.172
222.227
222.276
222.321
222.361
222.397
222.43
222.463
222.499
222.537
222.58
222.632
222.7
222.789
222.902
223.04
223.196
223.359
223.515
223.646
223.745
223.809
223.847
223.866
240.7
227.248
227.704
227.855
227.77
227.554
227.056
226.248
225.42
224.789
224.363
224.026
223.675
223.215
222.684
222.125
221.598
221.152
220.832
220.612
220.448
220.316
220.194
220.072
219.946
219.814
219.671
219.52
219.361
219.198
219.033
218.866
218.696
218.527
218.358
218.191
218.03
217.877
217.737
217.606
217.482
217.362
217.252
217.158
217.082
217.025
216.985
216.96
216.949
216.952
216.973
217.01
217.056
217.108
217.167
217.234
217.309
217.393
217.488
217.582
217.707
217.819
217.96
218.09
218.225
218.356
218.486
218.615
218.74
218.865
218.991
219.121
219.255
219.392
219.533
219.675
219.811
219.937
220.058
220.172
220.275
220.366
220.448
220.522
220.597
220.675
220.764
220.869
220.991
221.123
221.257
221.382
221.492
221.587
221.666
221.734
221.795
221.85
221.899
221.945
221.987
222.025
222.06
222.093
222.125
222.159
222.195
222.236
222.287
222.353
222.439
222.551
222.687
222.843
223.008
223.165
223.299
223.399
223.465
223.502
223.521
240.694
227.242
227.693
227.849
227.766
227.553
227.059
226.252
225.423
224.788
224.358
224.017
223.663
223.203
222.671
222.112
221.587
221.143
220.826
220.607
220.445
220.313
220.191
220.068
219.941
219.808
219.665
219.512
219.351
219.187
219.019
218.849
218.677
218.504
218.332
218.162
217.995
217.838
217.693
217.557
217.428
217.303
217.186
217.085
217.002
216.939
216.893
216.862
216.846
216.844
216.858
216.891
216.934
216.982
217.038
217.1
217.171
217.249
217.339
217.427
217.55
217.657
217.801
217.931
218.067
218.198
218.324
218.447
218.565
218.681
218.796
218.913
219.034
219.158
219.286
219.419
219.551
219.682
219.814
219.94
220.053
220.147
220.227
220.297
220.366
220.436
220.522
220.626
220.747
220.875
221.001
221.116
221.214
221.295
221.363
221.421
221.474
221.523
221.568
221.612
221.652
221.69
221.725
221.758
221.79
221.823
221.859
221.899
221.947
222.011
222.095
222.203
222.336
222.492
222.657
222.817
222.953
223.054
223.12
223.158
223.176
240.693
227.236
227.683
227.843
227.761
227.551
227.061
226.257
225.426
224.787
224.354
224.008
223.652
223.191
222.659
222.099
221.575
221.134
220.819
220.603
220.442
220.31
220.188
220.064
219.937
219.802
219.658
219.504
219.342
219.175
219.005
218.833
218.658
218.482
218.307
218.132
217.961
217.799
217.648
217.508
217.373
217.243
217.12
217.011
216.922
216.852
216.799
216.763
216.742
216.735
216.743
216.77
216.81
216.855
216.907
216.964
217.031
217.105
217.191
217.273
217.391
217.493
217.636
217.766
217.904
218.035
218.16
218.281
218.397
218.51
218.621
218.733
218.845
218.955
219.065
219.179
219.294
219.417
219.549
219.681
219.801
219.901
219.984
220.055
220.123
220.192
220.279
220.383
220.501
220.624
220.741
220.843
220.928
220.998
221.055
221.104
221.15
221.193
221.235
221.277
221.317
221.355
221.391
221.425
221.457
221.49
221.525
221.563
221.61
221.671
221.751
221.855
221.986
222.139
222.305
222.466
222.604
222.707
222.773
222.81
222.828
240.689
227.23
227.672
227.837
227.757
227.55
227.064
226.262
225.43
224.787
224.35
223.998
223.64
223.178
222.646
222.086
221.563
221.124
220.813
220.599
220.438
220.307
220.185
220.061
219.932
219.797
219.652
219.496
219.332
219.164
218.991
218.817
218.639
218.461
218.281
218.103
217.927
217.76
217.605
217.459
217.319
217.183
217.054
216.938
216.841
216.764
216.706
216.663
216.637
216.625
216.628
216.649
216.684
216.726
216.774
216.828
216.891
216.962
217.043
217.121
217.235
217.331
217.471
217.598
217.736
217.867
217.991
218.11
218.228
218.344
218.46
218.573
218.684
218.787
218.884
218.978
219.071
219.176
219.291
219.413
219.525
219.624
219.707
219.78
219.854
219.931
220.023
220.132
220.249
220.366
220.472
220.561
220.634
220.692
220.739
220.781
220.82
220.859
220.899
220.94
220.981
221.021
221.059
221.093
221.125
221.158
221.191
221.228
221.274
221.332
221.408
221.508
221.635
221.787
221.952
222.115
222.256
222.361
222.427
222.463
222.48
240.663
227.224
227.661
227.831
227.752
227.548
227.066
226.267
225.433
224.787
224.346
223.989
223.628
223.166
222.633
222.073
221.551
221.115
220.807
220.595
220.435
220.304
220.181
220.057
219.928
219.791
219.645
219.488
219.323
219.152
218.978
218.801
218.621
218.439
218.256
218.074
217.894
217.721
217.561
217.41
217.265
217.123
216.987
216.864
216.759
216.676
216.611
216.562
216.529
216.513
216.511
216.525
216.556
216.595
216.639
216.689
216.748
216.816
216.895
216.971
217.079
217.17
217.305
217.428
217.564
217.694
217.817
217.938
218.058
218.179
218.299
218.418
218.532
218.633
218.725
218.807
218.884
218.968
219.059
219.157
219.25
219.336
219.413
219.487
219.568
219.656
219.761
219.876
219.993
220.103
220.197
220.273
220.333
220.379
220.418
220.452
220.486
220.522
220.561
220.602
220.645
220.686
220.725
220.759
220.791
220.821
220.853
220.889
220.931
220.986
221.059
221.155
221.279
221.428
221.594
221.759
221.902
222.009
222.076
222.111
222.127
240.648
227.218
227.65
227.824
227.748
227.547
227.068
226.272
225.437
224.788
224.342
223.979
223.617
223.154
222.62
222.06
221.539
221.106
220.801
220.591
220.432
220.301
220.178
220.054
219.924
219.786
219.639
219.481
219.314
219.141
218.965
218.785
218.603
218.418
218.232
218.045
217.86
217.683
217.517
217.361
217.21
217.063
216.921
216.79
216.678
216.587
216.515
216.46
216.422
216.4
216.392
216.4
216.427
216.462
216.503
216.549
216.604
216.669
216.746
216.82
216.925
217.011
217.141
217.26
217.391
217.518
217.641
217.762
217.882
218.003
218.124
218.245
218.363
218.468
218.562
218.642
218.713
218.783
218.852
218.923
218.991
219.057
219.123
219.194
219.279
219.379
219.494
219.616
219.731
219.832
219.913
219.976
220.023
220.06
220.091
220.119
220.15
220.183
220.223
220.265
220.309
220.351
220.389
220.421
220.451
220.479
220.508
220.541
220.581
220.633
220.702
220.795
220.915
221.061
221.227
221.395
221.542
221.651
221.718
221.752
221.766
240.652
227.211
227.638
227.818
227.743
227.545
227.071
226.277
225.441
224.79
224.338
223.969
223.604
223.141
222.607
222.047
221.527
221.097
220.796
220.587
220.429
220.299
220.176
220.05
219.919
219.781
219.633
219.473
219.305
219.13
218.952
218.77
218.585
218.397
218.207
218.016
217.827
217.644
217.473
217.312
217.156
217.003
216.855
216.717
216.596
216.497
216.419
216.357
216.312
216.284
216.272
216.274
216.294
216.327
216.364
216.406
216.457
216.518
216.593
216.666
216.769
216.853
216.978
217.092
217.218
217.34
217.462
217.582
217.697
217.813
217.928
218.044
218.16
218.268
218.369
218.457
218.535
218.604
218.663
218.716
218.763
218.81
218.861
218.924
219.008
219.112
219.233
219.355
219.465
219.555
219.623
219.672
219.708
219.735
219.76
219.784
219.812
219.845
219.884
219.927
219.971
220.011
220.047
220.077
220.103
220.127
220.153
220.183
220.219
220.268
220.334
220.423
220.539
220.683
220.848
221.018
221.17
221.282
221.35
221.381
221.393
240.642
227.205
227.627
227.812
227.739
227.544
227.073
226.282
225.446
224.792
224.334
223.959
223.592
223.128
222.594
222.034
221.516
221.089
220.79
220.583
220.426
220.296
220.173
220.047
219.915
219.776
219.626
219.466
219.296
219.119
218.939
218.755
218.567
218.376
218.183
217.987
217.793
217.606
217.43
217.263
217.102
216.943
216.789
216.643
216.515
216.408
216.322
216.254
216.202
216.167
216.15
216.147
216.16
216.189
216.224
216.262
216.308
216.366
216.438
216.51
216.611
216.694
216.815
216.924
217.045
217.163
217.282
217.399
217.508
217.614
217.718
217.823
217.928
218.031
218.133
218.229
218.321
218.403
218.47
218.521
218.56
218.596
218.637
218.689
218.766
218.865
218.981
219.097
219.197
219.274
219.328
219.364
219.39
219.41
219.428
219.449
219.475
219.507
219.546
219.588
219.63
219.668
219.7
219.726
219.749
219.768
219.789
219.815
219.848
219.893
219.955
220.04
220.152
220.294
220.458
220.629
220.784
220.902
220.973
221.004
221.009
240.636
227.198
227.616
227.805
227.734
227.542
227.076
226.287
225.451
224.794
224.33
223.949
223.58
223.116
222.581
222.021
221.504
221.08
220.784
220.579
220.423
220.293
220.17
220.043
219.911
219.771
219.62
219.459
219.287
219.109
218.926
218.74
218.55
218.356
218.158
217.959
217.76
217.568
217.386
217.213
217.047
216.883
216.722
216.57
216.433
216.318
216.224
216.149
216.09
216.049
216.025
216.017
216.024
216.048
216.08
216.115
216.157
216.211
216.279
216.35
216.449
216.532
216.65
216.755
216.873
216.987
217.102
217.215
217.32
217.419
217.513
217.608
217.7
217.79
217.883
217.977
218.076
218.172
218.256
218.319
218.365
218.401
218.439
218.485
218.551
218.641
218.745
218.847
218.933
218.994
219.034
219.058
219.075
219.087
219.101
219.118
219.141
219.172
219.21
219.25
219.289
219.322
219.35
219.371
219.389
219.403
219.419
219.44
219.468
219.509
219.566
219.647
219.755
219.892
220.053
220.224
220.381
220.503
220.577
220.61
220.606
240.628
227.191
227.604
227.798
227.729
227.54
227.078
226.292
225.455
224.795
224.325
223.938
223.568
223.103
222.568
222.008
221.493
221.071
220.778
220.575
220.42
220.291
220.167
220.04
219.907
219.766
219.614
219.452
219.279
219.099
218.914
218.726
218.533
218.335
218.135
217.931
217.728
217.53
217.343
217.164
216.992
216.823
216.656
216.496
216.352
216.228
216.127
216.044
215.979
215.93
215.9
215.887
215.888
215.906
215.934
215.967
216.005
216.054
216.118
216.187
216.284
216.367
216.482
216.584
216.699
216.81
216.922
217.031
217.133
217.23
217.322
217.413
217.497
217.576
217.654
217.736
217.83
217.931
218.027
218.104
218.161
218.205
218.246
218.291
218.352
218.43
218.519
218.604
218.672
218.717
218.744
218.758
218.766
218.771
218.78
218.793
218.815
218.843
218.877
218.913
218.947
218.975
218.998
219.013
219.026
219.034
219.046
219.062
219.086
219.122
219.175
219.251
219.354
219.487
219.644
219.813
219.971
220.095
220.172
220.209
220.198
240.616
227.184
227.593
227.791
227.724
227.539
227.08
226.297
225.46
224.795
224.32
223.928
223.555
223.09
222.555
221.995
221.481
221.063
220.773
220.571
220.417
220.288
220.164
220.037
219.903
219.761
219.609
219.445
219.27
219.088
218.902
218.711
218.516
218.315
218.111
217.903
217.695
217.493
217.299
217.115
216.937
216.762
216.59
216.423
216.27
216.138
216.028
215.939
215.866
215.81
215.773
215.754
215.75
215.761
215.786
215.816
215.851
215.895
215.955
216.021
216.116
216.199
216.311
216.411
216.523
216.632
216.742
216.849
216.95
217.051
217.149
217.244
217.328
217.402
217.468
217.532
217.609
217.698
217.792
217.873
217.939
217.992
218.041
218.091
218.152
218.225
218.301
218.368
218.418
218.448
218.463
218.467
218.466
218.466
218.47
218.481
218.499
218.524
218.552
218.582
218.609
218.631
218.646
218.656
218.663
218.666
218.673
218.685
218.704
218.736
218.785
218.856
218.954
219.082
219.234
219.4
219.558
219.684
219.764
219.804
219.787
240.598
227.177
227.581
227.784
227.719
227.537
227.083
226.302
225.465
224.794
224.315
223.917
223.543
223.077
222.542
221.982
221.469
221.054
220.767
220.567
220.414
220.286
220.162
220.033
219.898
219.756
219.603
219.438
219.262
219.078
218.89
218.697
218.499
218.295
218.087
217.876
217.663
217.456
217.256
217.066
216.882
216.701
216.523
216.349
216.188
216.047
215.93
215.833
215.753
215.69
215.645
215.62
215.611
215.616
215.636
215.664
215.695
215.736
215.791
215.854
215.946
216.029
216.137
216.236
216.346
216.453
216.561
216.666
216.769
216.876
216.982
217.087
217.179
217.258
217.32
217.373
217.429
217.494
217.566
217.633
217.694
217.751
217.809
217.871
217.941
218.015
218.082
218.134
218.168
218.185
218.19
218.186
218.177
218.171
218.173