/*--------------------------------*- C++ -*----------------------------------*\
| =========                 |                                                 |
| \\      /  F ield         | OpenFOAM: The Open Source CFD Toolbox           |
|  \\    /   O peration     | Version:  2412                                  |
|   \\  /    A nd           | Website:  www.openfoam.com                      |
|    \\/     M anipulation  |                                                 |
\*---------------------------------------------------------------------------*/
FoamFile
{
    version     2.0;
    format      ascii;
    arch        "LSB;label=32;scalar=64";
    class       volScalarField;
    location    "0.054";
    object      rho;
}
// * * * * * * * * * * * * * * * * * * * * * * * * * * * * * * * * * * * * * //

dimensions      [1 -3 0 0 0 0 0];

internalField   nonuniform List<scalar> 
9816
(
0.0439848
0.0439919
0.0439974
0.0440012
0.0440035
0.0440045
0.044004
0.0440021
0.0439994
0.0439955
0.0439907
0.0439848
0.0439783
0.043971
0.0439633
0.0439553
0.0439466
0.04394
0.0439327
0.0439259
0.0439194
0.0439129
0.0439057
0.043897
0.0438858
0.0438705
0.0438531
0.0438301
0.0437968
0.0437456
0.0436783
0.0435974
0.0435058
0.0434019
0.043289
0.043166
0.0430257
0.0428665
0.0426893
0.042508
0.0423496
0.0422009
0.0433168
0.043312
0.0433066
0.0433009
0.0432946
0.0432881
0.0432813
0.043274
0.0432665
0.0432589
0.0432512
0.0432442
0.0432374
0.0432326
0.0432286
0.043228
0.0432273
0.0432276
0.0432272
0.0432249
0.0432189
0.0432107
0.0431974
0.0431725
0.0431332
0.0430765
0.0430062
0.0429232
0.0428315
0.0427279
0.042614
0.042485
0.0423473
0.0422002
0.0420588
0.0419225
0.0418062
0.0417098
0.0416562
0.041619
0.0415884
0.0415688
0.0430329
0.0430292
0.0430254
0.0430216
0.0430176
0.0430135
0.0430093
0.043005
0.0430003
0.0429971
0.0429935
0.0429914
0.0429898
0.0429892
0.0429889
0.0429878
0.0429856
0.0429817
0.0429759
0.0429649
0.0429454
0.0429147
0.0428719
0.0428138
0.0427386
0.0426454
0.0425348
0.0424078
0.0422696
0.0421248
0.0419831
0.0418518
0.0417374
0.0416402
0.0415738
0.0415328
0.0414934
0.041467
0.0414662
0.041469
0.0414719
0.0414741
0.0428484
0.0428454
0.0428423
0.0428392
0.042836
0.0428328
0.0428297
0.0428268
0.0428241
0.0428228
0.0428216
0.0428209
0.0428202
0.0428187
0.0428163
0.042813
0.0428083
0.0427985
0.0427815
0.0427523
0.0427095
0.0426474
0.0425669
0.0424643
0.0423437
0.0422062
0.0420612
0.0419142
0.0417758
0.0416537
0.0415619
0.0414928
0.0414344
0.0414074
0.0414073
0.0414015
0.0413861
0.0413803
0.0413803
0.0413877
0.0414038
0.0414237
0.0427203
0.0427182
0.0427159
0.0427136
0.0427114
0.0427093
0.0427075
0.042706
0.0427051
0.0427053
0.0427053
0.0427048
0.0427036
0.0427016
0.0426987
0.0426932
0.042682
0.0426612
0.0426279
0.0425752
0.0425014
0.0424033
0.0422812
0.0421398
0.0419874
0.041834
0.04169
0.0415673
0.0414807
0.0414183
0.0413625
0.0413397
0.0413436
0.0413443
0.0413387
0.0413292
0.0413255
0.0413306
0.041342
0.0413603
0.041382
0.0414026
0.0426272
0.0426261
0.0426249
0.0426237
0.0426227
0.042622
0.0426216
0.0426215
0.0426217
0.0426222
0.0426226
0.0426222
0.0426207
0.0426178
0.0426141
0.0426048
0.0425828
0.04255
0.0424967
0.042418
0.0423137
0.0421829
0.042032
0.0418735
0.0417177
0.0415817
0.0414787
0.0413967
0.0413397
0.0413266
0.0413275
0.0413143
0.041295
0.0412922
0.0412948
0.0413019
0.0413153
0.0413311
0.0413468
0.0413598
0.0413694
0.041376
0.0425582
0.0425579
0.0425575
0.0425572
0.0425569
0.0425571
0.0425577
0.0425582
0.0425583
0.0425583
0.0425586
0.0425589
0.0425574
0.0425517
0.0425444
0.0425281
0.0424932
0.0424432
0.0423665
0.0422595
0.0421282
0.0419751
0.0418156
0.0416613
0.0415327
0.0414344
0.0413556
0.0413145
0.0413136
0.0413099
0.0412922
0.041276
0.0412753
0.0412791
0.0412889
0.0413023
0.0413164
0.0413289
0.0413386
0.0413454
0.0413502
0.0413548
0.0425027
0.0425031
0.0425034
0.0425037
0.042504
0.0425045
0.0425053
0.042506
0.0425062
0.042506
0.0425057
0.0425051
0.0425022
0.0424929
0.0424768
0.0424477
0.0423968
0.0423226
0.0422188
0.0420877
0.0419363
0.0417783
0.0416293
0.0415054
0.041403
0.0413377
0.0413156
0.0413002
0.0412763
0.0412664
0.0412669
0.0412723
0.0412805
0.0412859
0.0412908
0.0412955
0.0413007
0.0413077
0.0413165
0.0413268
0.0413382
0.0413499
0.0424586
0.0424595
0.0424602
0.0424606
0.0424612
0.0424625
0.0424633
0.0424634
0.0424627
0.0424621
0.0424622
0.042461
0.0424517
0.0424353
0.0424124
0.0423637
0.0422912
0.0421932
0.0420646
0.0419164
0.0417618
0.0416152
0.0414925
0.0413914
0.0413333
0.041312
0.0412877
0.041263
0.0412606
0.0412633
0.0412712
0.0412769
0.041278
0.0412787
0.0412799
0.0412835
0.0412909
0.0413015
0.0413145
0.0413281
0.0413409
0.0413517
0.0424214
0.0424226
0.0424234
0.0424244
0.0424254
0.0424269
0.0424276
0.0424276
0.0424271
0.0424266
0.0424257
0.0424211
0.0424069
0.0423851
0.0423478
0.0422825
0.042193
0.0420747
0.0419339
0.0417834
0.0416375
0.0415077
0.0414091
0.0413493
0.0413047
0.0412709
0.0412661
0.0412728
0.0412736
0.0412701
0.0412642
0.0412604
0.041262
0.0412676
0.041278
0.0412912
0.0413047
0.0413165
0.0413254
0.0413314
0.0413351
0.0413374
0.0423897
0.0423912
0.0423925
0.0423938
0.0423948
0.0423958
0.0423968
0.0423974
0.0423974
0.0423962
0.0423926
0.0423861
0.0423704
0.0423413
0.0422934
0.0422209
0.0421193
0.0419945
0.0418511
0.0417059
0.0415683
0.0414569
0.0413769
0.0413157
0.0412803
0.0412791
0.0412819
0.0412732
0.0412587
0.0412556
0.0412565
0.0412613
0.0412692
0.0412787
0.0412882
0.0412967
0.0413037
0.0413094
0.0413144
0.0413192
0.0413246
0.0413312
0.0423628
0.0423642
0.0423656
0.0423671
0.0423686
0.0423698
0.0423706
0.0423709
0.0423709
0.04237
0.0423668
0.0423567
0.0423399
0.0423086
0.0422554
0.0421793
0.0420759
0.0419491
0.0418085
0.041667
0.041538
0.0414373
0.0413582
0.041305
0.0412906
0.0412906
0.041278
0.041262
0.0412586
0.0412598
0.0412656
0.0412734
0.0412791
0.0412839
0.0412883
0.0412927
0.041298
0.0413046
0.0413124
0.0413214
0.0413311
0.0413411
0.0423399
0.0423417
0.0423434
0.0423452
0.0423471
0.0423486
0.0423496
0.0423501
0.0423498
0.0423487
0.0423443
0.0423328
0.0423146
0.0422796
0.0422252
0.0421458
0.042042
0.0419157
0.0417785
0.0416416
0.0415215
0.0414247
0.0413495
0.0413125
0.0413007
0.041282
0.0412647
0.0412646
0.0412676
0.0412737
0.0412776
0.0412777
0.0412778
0.0412788
0.041282
0.0412887
0.0412984
0.0413101
0.0413221
0.0413334
0.0413428
0.0413499
0.0423178
0.0423196
0.0423213
0.042323
0.0423246
0.0423261
0.042327
0.0423276
0.0423275
0.0423257
0.0423211
0.0423092
0.0422895
0.0422514
0.0421955
0.0421129
0.0420086
0.0418834
0.0417496
0.0416191
0.0415057
0.0414129
0.0413464
0.0413183
0.0413019
0.0412787
0.0412675
0.0412704
0.0412768
0.0412817
0.0412828
0.0412808
0.0412792
0.0412802
0.0412843
0.041293
0.0413048
0.0413181
0.041331
0.041342
0.0413502
0.0413557
0.0422988
0.0423007
0.0423025
0.0423044
0.0423061
0.0423077
0.0423088
0.0423093
0.0423089
0.0423062
0.0423005
0.0422868
0.0422639
0.0422222
0.0421629
0.0420763
0.0419706
0.0418453
0.0417158
0.0415912
0.0414842
0.0413986
0.0413482
0.0413212
0.0412924
0.0412762
0.04128
0.0412871
0.041289
0.0412869
0.0412824
0.0412793
0.0412801
0.0412856
0.0412951
0.041308
0.0413216
0.041334
0.0413437
0.0413506
0.0413548
0.0413573
0.0422821
0.0422841
0.0422861
0.0422881
0.04229
0.0422916
0.0422927
0.0422932
0.0422923
0.0422891
0.0422814
0.042266
0.0422385
0.0421929
0.0421273
0.042037
0.0419273
0.0418031
0.0416778
0.0415597
0.0414609
0.0413913
0.0413445
0.0413073
0.0412957
0.0413003
0.0412999
0.0412927
0.0412838
0.0412824
0.041284
0.0412889
0.0412964
0.0413056
0.0413152
0.0413244
0.0413324
0.0413394
0.0413454
0.041351
0.0413566
0.0413628
0.0422677
0.0422698
0.0422719
0.0422739
0.0422757
0.0422773
0.0422782
0.0422781
0.0422767
0.0422729
0.0422634
0.042246
0.0422146
0.0421656
0.0420945
0.0420011
0.0418891
0.0417661
0.0416444
0.0415329
0.0414462
0.0413808
0.0413323
0.0413132
0.0413151
0.0413098
0.0412967
0.0412898
0.0412896
0.041293
0.0412993
0.0413053
0.0413109
0.0413165
0.0413223
0.0413287
0.041336
0.0413442
0.0413532
0.0413626
0.0413722
0.0413814
0.0422521
0.0422542
0.0422563
0.0422584
0.0422603
0.0422618
0.0422626
0.0422626
0.042261
0.0422568
0.0422466
0.0422282
0.0421956
0.0421457
0.0420743
0.0419812
0.0418705
0.04175
0.0416325
0.0415253
0.0414436
0.0413869
0.041343
0.0413193
0.0413212
0.0413244
0.0413179
0.0413062
0.0413035
0.0413042
0.0413084
0.0413152
0.0413233
0.0413316
0.0413396
0.041347
0.041354
0.0413606
0.0413672
0.0413741
0.0413816
0.0413898
0.0422396
0.0422416
0.0422437
0.0422457
0.0422475
0.042249
0.0422499
0.0422501
0.0422484
0.0422445
0.0422344
0.0422167
0.0421846
0.0421365
0.0420663
0.0419771
0.0418695
0.0417538
0.0416392
0.0415376
0.0414583
0.0413964
0.0413566
0.0413443
0.0413393
0.0413271
0.0413188
0.0413197
0.0413226
0.0413274
0.0413306
0.0413328
0.0413352
0.0413386
0.041344
0.0413518
0.0413614
0.0413722
0.041383
0.0413931
0.0414019
0.0414092
0.0422291
0.0422312
0.0422333
0.0422353
0.042237
0.0422384
0.0422392
0.0422393
0.0422377
0.0422341
0.042225
0.0422091
0.0421803
0.0421363
0.0420722
0.0419884
0.0418876
0.0417769
0.0416668
0.0415659
0.0414821
0.0414226
0.0413842
0.041355
0.0413432
0.0413459
0.0413469
0.0413423
0.0413358
0.041336
0.0413373
0.0413412
0.041347
0.0413543
0.0413623
0.0413701
0.0413776
0.0413847
0.0413914
0.0413979
0.0414045
0.0414113
0.042219
0.042221
0.0422229
0.0422248
0.0422265
0.042228
0.0422289
0.0422293
0.0422284
0.0422255
0.0422189
0.0422052
0.042182
0.0421432
0.0420884
0.0420121
0.0419207
0.0418152
0.0417084
0.0416072
0.04152
0.041453
0.0414121
0.0413858
0.0413638
0.0413576
0.0413621
0.0413646
0.0413637
0.0413581
0.0413564
0.0413567
0.0413596
0.041366
0.0413744
0.0413841
0.0413934
0.0414017
0.0414085
0.0414142
0.041419
0.0414236
0.0422116
0.0422136
0.0422156
0.0422176
0.0422194
0.0422211
0.0422222
0.0422229
0.0422226
0.0422205
0.0422162
0.0422051
0.0421874
0.0421547
0.0421086
0.0420413
0.0419584
0.0418596
0.041756
0.041655
0.041565
0.0414928
0.0414452
0.0414167
0.0413916
0.0413815
0.0413856
0.0413891
0.0413874
0.0413816
0.0413787
0.0413785
0.0413813
0.0413868
0.0413945
0.0414031
0.0414114
0.0414186
0.0414247
0.0414298
0.0414343
0.0414388
0.0422053
0.0422073
0.0422093
0.0422114
0.0422133
0.0422151
0.0422166
0.0422175
0.0422178
0.0422166
0.0422134
0.0422055
0.0421911
0.0421654
0.0421256
0.0420683
0.0419928
0.0419026
0.0418029
0.0417038
0.041613
0.0415367
0.0414822
0.0414504
0.0414256
0.0414091
0.0414086
0.0414132
0.0414141
0.0414115
0.0414053
0.0414045
0.0414056
0.0414092
0.0414155
0.0414231
0.0414311
0.0414384
0.0414445
0.0414495
0.0414537
0.0414577
0.0422008
0.0422027
0.0422047
0.0422067
0.0422087
0.0422105
0.0422122
0.0422133
0.0422139
0.0422134
0.0422111
0.0422057
0.0421941
0.0421742
0.0421404
0.0420923
0.042025
0.0419441
0.0418503
0.0417551
0.0416639
0.0415875
0.0415271
0.0414841
0.0414619
0.0414515
0.0414399
0.0414332
0.0414344
0.0414377
0.0414398
0.0414407
0.0414401
0.0414392
0.0414399
0.0414428
0.0414478
0.0414548
0.0414625
0.0414702
0.0414773
0.0414834
0.042198
0.0422001
0.0422022
0.0422043
0.0422063
0.0422082
0.0422099
0.0422111
0.0422118
0.0422117
0.0422098
0.0422061
0.0421965
0.0421809
0.0421528
0.0421125
0.0420543
0.0419819
0.041896
0.0418053
0.041716
0.041637
0.0415743
0.0415285
0.0414956
0.0414803
0.0414772
0.0414724
0.0414657
0.0414628
0.041464
0.0414667
0.0414699
0.0414719
0.041473
0.041474
0.0414753
0.0414778
0.0414818
0.0414872
0.0414938
0.041501
0.0421958
0.0421979
0.0422
0.0422022
0.0422042
0.0422062
0.042208
0.0422094
0.0422103
0.0422105
0.0422094
0.0422064
0.0421993
0.0421859
0.0421632
0.0421275
0.0420777
0.0420115
0.0419337
0.0418468
0.0417609
0.0416813
0.0416167
0.041569
0.0415331
0.0415131
0.0415091
0.0415072
0.0415006
0.0414947
0.041494
0.0414959
0.0414995
0.0415028
0.0415044
0.041505
0.0415052
0.0415059
0.0415078
0.0415114
0.0415166
0.0415232
0.0421931
0.0421953
0.0421975
0.0421997
0.0422018
0.0422039
0.0422058
0.0422074
0.0422085
0.0422089
0.0422083
0.0422055
0.0421998
0.0421873
0.0421674
0.0421336
0.0420879
0.0420247
0.0419515
0.041868
0.0417858
0.0417089
0.0416465
0.0415981
0.0415633
0.0415471
0.0415413
0.0415331
0.0415258
0.0415247
0.0415271
0.0415301
0.041532
0.0415325
0.0415315
0.0415301
0.04153
0.0415315
0.0415348
0.04154
0.0415461
0.0415526
0.0421903
0.0421925
0.0421947
0.0421969
0.042199
0.0422011
0.042203
0.0422047
0.0422057
0.0422062
0.0422055
0.0422028
0.0421969
0.0421843
0.0421639
0.0421299
0.0420841
0.0420219
0.0419509
0.0418712
0.041794
0.0417223
0.0416637
0.0416209
0.0415924
0.0415719
0.0415628
0.0415627
0.0415623
0.0415594
0.0415561
0.0415546
0.0415556
0.0415577
0.0415604
0.0415625
0.0415643
0.041566
0.0415677
0.0415698
0.0415725
0.0415761
0.0421879
0.0421901
0.0421923
0.0421946
0.0421968
0.0421989
0.0422009
0.0422026
0.0422037
0.0422041
0.0422033
0.0422004
0.0421938
0.0421808
0.0421592
0.0421248
0.0420778
0.0420164
0.041946
0.0418698
0.0417967
0.0417312
0.0416776
0.0416399
0.0416171
0.0416002
0.0415896
0.0415888
0.0415912
0.0415917
0.04159
0.0415869
0.0415848
0.0415858
0.041588
0.0415912
0.0415945
0.0415977
0.0416005
0.0416029
0.0416049
0.0416071
0.0421855
0.0421875
0.0421899
0.0421921
0.0421943
0.0421965
0.0421985
0.0422002
0.0422013
0.0422017
0.0422007
0.0421977
0.0421905
0.0421771
0.0421542
0.0421195
0.0420717
0.0420115
0.041943
0.0418708
0.0418025
0.0417427
0.0416965
0.0416631
0.0416403
0.0416292
0.0416254
0.0416215
0.0416184
0.0416178
0.0416185
0.0416204
0.0416218
0.0416225
0.0416229
0.0416234
0.0416241
0.0416258
0.0416283
0.0416316
0.0416354
0.0416395
0.042185
0.0421873
0.0421896
0.0421919
0.0421942
0.0421964
0.0421984
0.0422001
0.0422012
0.0422015
0.0422004
0.0421972
0.0421897
0.0421758
0.0421527
0.042118
0.042071
0.0420122
0.0419468
0.0418787
0.0418162
0.0417618
0.0417206
0.0416916
0.0416722
0.0416604
0.0416569
0.0416561
0.0416544
0.0416526
0.041652
0.0416524
0.0416543
0.0416561
0.0416575
0.0416586
0.0416596
0.0416606
0.0416619
0.0416637
0.0416662
0.0416694
0.0421848
0.0421871
0.0421894
0.0421917
0.0421939
0.042196
0.0421979
0.0421994
0.0422003
0.0422005
0.0421992
0.042196
0.0421884
0.0421745
0.0421518
0.0421176
0.0420727
0.0420168
0.0419559
0.041893
0.0418358
0.0417865
0.0417489
0.0417223
0.0417062
0.0416956
0.0416899
0.0416886
0.0416891
0.041689
0.0416884
0.0416879
0.0416881
0.0416888
0.0416903
0.0416919
0.0416936
0.0416952
0.0416967
0.0416982
0.0416998
0.0417016
0.042185
0.0421873
0.0421895
0.0421918
0.042194
0.0421962
0.0421981
0.0421996
0.0422006
0.0422008
0.0421996
0.0421963
0.0421888
0.042175
0.0421533
0.0421205
0.0420785
0.0420261
0.0419701
0.0419122
0.0418601
0.0418154
0.0417814
0.0417568
0.0417421
0.0417334
0.0417278
0.0417253
0.0417255
0.0417263
0.0417266
0.0417264
0.0417262
0.0417263
0.0417269
0.0417278
0.0417295
0.0417311
0.0417328
0.0417343
0.0417358
0.0417373
0.0421849
0.0421872
0.0421894
0.0421918
0.042194
0.0421962
0.0421981
0.0421996
0.0422006
0.0422008
0.0421994
0.042196
0.0421883
0.0421744
0.0421528
0.0421209
0.0420808
0.042032
0.0419805
0.0419279
0.0418814
0.0418418
0.0418123
0.0417909
0.0417783
0.0417707
0.041766
0.041764
0.0417642
0.0417646
0.0417648
0.0417648
0.0417649
0.0417653
0.0417658
0.0417667
0.0417678
0.0417689
0.0417702
0.0417715
0.0417729
0.0417744
0.0421844
0.0421867
0.0421889
0.0421912
0.0421935
0.0421956
0.0421975
0.0421989
0.0421997
0.0421998
0.0421979
0.0421942
0.0421852
0.042171
0.0421479
0.0421166
0.0420769
0.0420313
0.041984
0.0419384
0.0418983
0.0418661
0.0418416
0.0418257
0.0418153
0.0418099
0.0418068
0.0418058
0.0418055
0.0418057
0.0418062
0.0418066
0.041807
0.0418074
0.0418081
0.0418088
0.0418096
0.0418108
0.041812
0.0418134
0.041815
0.0418167
0.0421835
0.0421857
0.042188
0.0421902
0.0421925
0.0421946
0.0421964
0.0421977
0.0421983
0.0421979
0.0421955
0.0421908
0.04218
0.0421644
0.0421391
0.0421078
0.0420684
0.0420265
0.0419842
0.0419455
0.0419139
0.0418888
0.0418722
0.0418606
0.0418547
0.0418512
0.04185
0.0418495
0.0418496
0.0418501
0.0418506
0.0418512
0.0418516
0.0418524
0.0418533
0.0418544
0.0418557
0.0418571
0.0418587
0.0418605
0.0418624
0.0418645
0.0421823
0.0421845
0.0421868
0.0421891
0.0421913
0.0421933
0.042195
0.042196
0.0421963
0.042195
0.0421917
0.0421845
0.0421718
0.0421528
0.0421257
0.0420935
0.0420558
0.0420189
0.0419833
0.0419542
0.041931
0.041915
0.0419046
0.0418987
0.0418959
0.0418947
0.0418945
0.0418948
0.0418954
0.041896
0.0418967
0.0418973
0.0418985
0.0418997
0.0419014
0.0419033
0.0419053
0.0419073
0.0419095
0.0419117
0.0419141
0.0419165
0.042181
0.0421833
0.0421857
0.042188
0.0421902
0.0421921
0.0421935
0.0421942
0.0421937
0.0421913
0.0421863
0.0421758
0.0421604
0.0421374
0.0421093
0.042077
0.0420437
0.0420136
0.0419869
0.0419679
0.0419534
0.0419455
0.0419407
0.0419389
0.0419383
0.0419385
0.0419391
0.0419398
0.0419408
0.0419414
0.041943
0.0419445
0.0419467
0.041949
0.0419514
0.0419539
0.0419565
0.0419592
0.0419618
0.0419645
0.0419673
0.0419701
0.042179
0.0421813
0.0421836
0.0421858
0.0421879
0.0421895
0.0421906
0.0421907
0.0421891
0.0421855
0.0421773
0.0421645
0.0421453
0.042121
0.0420924
0.0420638
0.0420361
0.0420144
0.0419965
0.0419862
0.0419794
0.0419771
0.0419759
0.0419761
0.0419767
0.0419774
0.0419786
0.0419795
0.0419813
0.0419831
0.0419856
0.0419882
0.0419909
0.0419938
0.0419969
0.042
0.0420031
0.0420062
0.0420093
0.0420123
0.0420153
0.0420184
0.0421773
0.0421797
0.042182
0.0421842
0.0421862
0.0421875
0.0421883
0.0421877
0.0421851
0.04218
0.0421696
0.0421548
0.0421335
0.0421094
0.0420831
0.0420586
0.0420376
0.0420223
0.0420128
0.0420081
0.0420062
0.0420059
0.0420065
0.0420073
0.0420083
0.0420096
0.0420111
0.0420131
0.0420152
0.0420179
0.0420207
0.0420238
0.042027
0.0420303
0.0420337
0.0420371
0.0420405
0.0420438
0.042047
0.0420501
0.0420532
0.0420563
0.0421751
0.0421774
0.0421796
0.0421818
0.0421837
0.0421849
0.0421854
0.0421845
0.0421816
0.0421756
0.0421646
0.0421493
0.0421286
0.0421061
0.0420824
0.0420627
0.0420471
0.0420377
0.0420324
0.0420303
0.0420298
0.0420303
0.0420311
0.0420321
0.0420332
0.0420347
0.0420364
0.0420385
0.0420407
0.0420434
0.0420462
0.0420494
0.0420526
0.0420559
0.0420592
0.0420624
0.0420656
0.0420688
0.0420718
0.0420747
0.0420776
0.0420805
0.0421729
0.0421752
0.0421774
0.0421795
0.0421812
0.0421824
0.0421827
0.0421815
0.0421785
0.042172
0.0421612
0.0421462
0.0421269
0.0421068
0.0420866
0.0420706
0.0420581
0.0420509
0.0420466
0.042045
0.0420445
0.0420449
0.0420456
0.0420465
0.0420475
0.0420487
0.0420502
0.042052
0.042054
0.0420563
0.0420589
0.0420616
0.0420643
0.0420672
0.0420701
0.0420729
0.0420757
0.0420784
0.0420811
0.0420837
0.0420863
0.0420889
0.0421711
0.0421733
0.0421754
0.0421774
0.042179
0.04218
0.0421803
0.042179
0.042176
0.0421697
0.0421596
0.0421458
0.0421286
0.0421105
0.0420929
0.0420782
0.0420668
0.0420594
0.0420547
0.0420527
0.0420517
0.0420517
0.0420523
0.042053
0.0420538
0.0420548
0.042056
0.0420573
0.042059
0.0420608
0.0420629
0.0420651
0.0420674
0.0420698
0.0420722
0.0420747
0.0420771
0.0420796
0.042082
0.0420844
0.0420868
0.0420892
0.0421696
0.0421717
0.0421737
0.0421757
0.0421772
0.0421782
0.0421785
0.0421774
0.0421746
0.0421689
0.0421597
0.0421472
0.0421315
0.0421149
0.0420982
0.0420838
0.0420723
0.0420641
0.042059
0.0420561
0.0420549
0.0420546
0.0420548
0.0420555
0.0420562
0.042057
0.0420579
0.042059
0.0420603
0.0420618
0.0420635
0.0420654
0.0420675
0.0420696
0.0420719
0.0420741
0.0420764
0.0420787
0.042081
0.0420833
0.0420856
0.0420879
0.0421682
0.0421702
0.0421723
0.0421742
0.0421758
0.0421769
0.0421771
0.0421762
0.0421737
0.0421685
0.04216
0.0421484
0.0421334
0.0421175
0.0421011
0.0420868
0.042075
0.0420665
0.0420611
0.0420578
0.0420564
0.0420559
0.042056
0.0420566
0.0420572
0.0420579
0.0420587
0.0420597
0.0420609
0.0420622
0.0420638
0.0420655
0.0420674
0.0420693
0.0420714
0.0420735
0.0420757
0.0420778
0.04208
0.0420822
0.0420843
0.0420865
0.0421669
0.042169
0.042171
0.0421729
0.0421745
0.0421756
0.0421759
0.0421751
0.0421727
0.0421679
0.0421596
0.0421484
0.0421337
0.0421181
0.0421019
0.0420879
0.0420762
0.0420678
0.0420623
0.0420591
0.0420577
0.0420571
0.0420572
0.0420576
0.0420583
0.042059
0.0420598
0.0420607
0.0420617
0.042063
0.0420644
0.042066
0.0420677
0.0420696
0.0420715
0.0420736
0.0420756
0.0420777
0.0420797
0.0420818
0.0420838
0.0420859
0.0421659
0.0421679
0.0421699
0.0421718
0.0421734
0.0421744
0.0421748
0.0421739
0.0421714
0.0421666
0.0421583
0.0421472
0.0421327
0.0421176
0.0421017
0.0420882
0.0420769
0.0420689
0.0420637
0.0420606
0.0420593
0.0420588
0.0420589
0.0420593
0.04206
0.0420607
0.0420614
0.0420623
0.0420633
0.0420644
0.0420658
0.0420672
0.0420689
0.0420706
0.0420724
0.0420743
0.0420763
0.0420782
0.0420802
0.0420822
0.0420842
0.0420862
0.0421652
0.0421672
0.0421692
0.0421711
0.0421726
0.0421736
0.0421739
0.0421728
0.0421703
0.0421652
0.0421568
0.0421456
0.0421314
0.0421166
0.0421014
0.0420887
0.0420781
0.0420707
0.042066
0.0420633
0.0420621
0.0420617
0.0420618
0.0420623
0.042063
0.0420637
0.0420644
0.0420652
0.0420662
0.0420673
0.0420685
0.0420699
0.0420714
0.042073
0.0420747
0.0420765
0.0420783
0.0420801
0.042082
0.0420838
0.0420857
0.0420876
0.0421646
0.0421666
0.0421685
0.0421703
0.0421718
0.0421727
0.0421729
0.0421717
0.042169
0.0421635
0.0421551
0.0421437
0.0421299
0.0421156
0.0421014
0.0420896
0.0420801
0.0420736
0.0420695
0.0420673
0.0420664
0.0420662
0.0420665
0.042067
0.0420676
0.0420683
0.0420691
0.0420699
0.0420709
0.0420719
0.0420731
0.0420744
0.0420758
0.0420773
0.0420789
0.0420805
0.0420822
0.0420839
0.0420856
0.0420873
0.042089
0.0420908
0.0421636
0.0421656
0.0421675
0.0421693
0.0421707
0.0421715
0.0421716
0.0421701
0.0421673
0.0421613
0.0421528
0.0421413
0.0421281
0.0421144
0.0421015
0.0420908
0.0420826
0.0420772
0.0420738
0.0420723
0.0420717
0.0420717
0.0420721
0.0420726
0.0420733
0.042074
0.0420748
0.0420756
0.0420766
0.0420777
0.0420789
0.0420801
0.0420815
0.0420829
0.0420844
0.0420859
0.0420874
0.042089
0.0420905
0.0420921
0.0420937
0.0420953
0.0421618
0.0421637
0.0421657
0.0421674
0.0421687
0.0421695
0.0421693
0.0421677
0.0421646
0.0421582
0.0421498
0.0421382
0.0421257
0.0421128
0.0421012
0.042092
0.0420851
0.0420809
0.0420784
0.0420774
0.0420771
0.0420774
0.0420779
0.0420785
0.0420792
0.0420799
0.0420808
0.0420817
0.0420827
0.0420838
0.042085
0.0420863
0.0420876
0.042089
0.0420904
0.0420919
0.0420933
0.0420948
0.0420963
0.0420977
0.0420992
0.0421007
0.0421592
0.0421611
0.042163
0.0421647
0.042166
0.0421666
0.0421661
0.0421644
0.0421608
0.0421544
0.0421458
0.0421346
0.0421229
0.0421111
0.0421011
0.0420931
0.0420876
0.0420842
0.0420826
0.0420819
0.0420819
0.0420823
0.0420829
0.0420836
0.0420843
0.0420851
0.042086
0.042087
0.0420881
0.0420892
0.0420904
0.0420917
0.042093
0.0420943
0.0420956
0.042097
0.0420984
0.0420997
0.0421011
0.0421024
0.0421038
0.0421051
0.0421569
0.0421588
0.0421606
0.0421622
0.0421634
0.0421639
0.0421633
0.0421615
0.0421578
0.0421516
0.0421433
0.0421328
0.0421221
0.0421113
0.0421025
0.0420954
0.0420909
0.042088
0.0420868
0.0420863
0.0420864
0.042087
0.0420876
0.0420883
0.042089
0.0420898
0.0420907
0.0420917
0.0420927
0.0420938
0.0420949
0.0420961
0.0420973
0.0420985
0.0420998
0.042101
0.0421022
0.0421035
0.0421047
0.0421058
0.042107
0.0421082
0.0421533
0.042155
0.0421568
0.0421584
0.0421596
0.04216
0.0421596
0.0421579
0.0421546
0.042149
0.0421416
0.0421322
0.0421226
0.0421129
0.042105
0.0420986
0.0420945
0.0420918
0.0420907
0.0420903
0.0420903
0.0420909
0.0420915
0.0420922
0.0420929
0.0420938
0.0420946
0.0420956
0.0420965
0.0420975
0.0420986
0.0420997
0.0421008
0.0421019
0.042103
0.0421041
0.0421051
0.0421062
0.0421073
0.0421084
0.0421094
0.0421105
0.0421506
0.0421524
0.0421542
0.0421559
0.0421573
0.0421579
0.0421578
0.0421565
0.0421541
0.0421493
0.042143
0.0421348
0.0421262
0.0421176
0.0421101
0.0421041
0.0420997
0.0420969
0.0420952
0.0420945
0.0420943
0.0420945
0.0420949
0.0420955
0.0420961
0.0420967
0.0420974
0.0420981
0.0420989
0.0420997
0.0421005
0.0421013
0.0421022
0.042103
0.0421039
0.0421048
0.0421057
0.0421066
0.0421075
0.0421083
0.0421092
0.0421102
0.042148
0.0421497
0.0421514
0.042153
0.0421543
0.0421551
0.0421553
0.0421545
0.0421527
0.0421491
0.0421441
0.0421375
0.04213
0.0421225
0.0421153
0.0421094
0.0421047
0.0421015
0.0420993
0.042098
0.0420975
0.0420973
0.0420973
0.0420977
0.0420981
0.0420987
0.0420992
0.0420998
0.0421004
0.0421011
0.0421017
0.0421024
0.0421031
0.0421038
0.0421046
0.0421054
0.0421061
0.0421069
0.0421077
0.0421085
0.0421093
0.0421102
0.0421451
0.0421467
0.0421483
0.0421499
0.0421513
0.0421523
0.0421528
0.0421525
0.0421514
0.0421492
0.0421453
0.0421404
0.0421341
0.0421277
0.0421211
0.0421153
0.0421104
0.0421066
0.0421038
0.0421019
0.0421008
0.0421001
0.0420998
0.0420998
0.0421
0.0421003
0.0421007
0.0421012
0.0421017
0.0421022
0.0421027
0.0421033
0.0421039
0.0421045
0.0421051
0.0421057
0.0421063
0.042107
0.0421076
0.0421083
0.042109
0.0421096
0.0421418
0.0421433
0.0421449
0.0421465
0.042148
0.0421493
0.0421501
0.0421503
0.0421497
0.0421484
0.0421458
0.0421419
0.0421371
0.0421314
0.0421256
0.0421198
0.0421148
0.0421104
0.0421071
0.0421045
0.0421028
0.0421016
0.0421008
0.0421005
0.0421003
0.0421003
0.0421005
0.0421008
0.0421013
0.0421017
0.0421021
0.0421026
0.042103
0.0421035
0.042104
0.0421045
0.0421049
0.0421054
0.0421059
0.0421064
0.0421069
0.0421074
0.0421383
0.0421397
0.0421411
0.0421426
0.0421439
0.0421452
0.0421461
0.0421465
0.0421464
0.0421455
0.0421439
0.042141
0.0421371
0.0421324
0.0421271
0.0421218
0.0421166
0.042112
0.0421081
0.042105
0.0421026
0.0421009
0.0420997
0.0420989
0.0420985
0.0420983
0.0420982
0.0420983
0.0420984
0.0420986
0.0420989
0.0420992
0.0420996
0.0420999
0.0421002
0.0421006
0.0421009
0.0421013
0.0421016
0.042102
0.0421023
0.0421027
0.0421316
0.0421326
0.0421337
0.0421348
0.042136
0.0421371
0.0421381
0.0421388
0.0421391
0.042139
0.0421383
0.0421367
0.0421342
0.0421305
0.0421263
0.0421215
0.0421167
0.0421122
0.0421081
0.0421046
0.0421017
0.0420995
0.0420978
0.0420966
0.0420957
0.0420951
0.0420947
0.0420945
0.0420944
0.0420943
0.0420944
0.0420945
0.0420947
0.0420949
0.0420951
0.0420953
0.0420956
0.0420958
0.0420961
0.0420964
0.0420967
0.042097
0.0421228
0.0421235
0.0421243
0.0421252
0.0421262
0.0421272
0.0421281
0.042129
0.0421296
0.04213
0.0421301
0.0421296
0.0421283
0.0421262
0.0421233
0.0421196
0.0421155
0.0421112
0.0421071
0.0421033
0.0420999
0.042097
0.0420946
0.0420926
0.042091
0.0420898
0.0420887
0.0420879
0.0420873
0.0420869
0.0420865
0.0420863
0.0420861
0.042086
0.042086
0.042086
0.042086
0.0420861
0.0420862
0.0420863
0.0420864
0.0420865
0.0421147
0.0421152
0.0421157
0.0421164
0.0421171
0.0421178
0.0421185
0.0421193
0.0421199
0.0421204
0.0421208
0.0421209
0.0421207
0.0421199
0.0421185
0.0421164
0.0421136
0.0421103
0.0421068
0.0421031
0.0420995
0.042096
0.0420929
0.04209
0.0420875
0.0420853
0.0420834
0.0420818
0.0420804
0.0420793
0.0420783
0.0420775
0.0420768
0.0420763
0.0420758
0.0420754
0.0420751
0.0420748
0.0420746
0.0420744
0.0420742
0.0420741
0.0421036
0.0421037
0.0421038
0.0421041
0.0421044
0.0421047
0.0421051
0.0421056
0.0421062
0.0421068
0.0421074
0.0421078
0.0421081
0.0421083
0.0421082
0.0421078
0.0421071
0.0421058
0.0421039
0.0421015
0.0420986
0.0420955
0.0420923
0.0420891
0.0420861
0.0420834
0.0420809
0.0420786
0.0420766
0.0420748
0.0420733
0.0420718
0.0420706
0.0420694
0.0420684
0.0420675
0.0420666
0.0420659
0.0420652
0.0420646
0.042064
0.0420635
0.0420972
0.0420972
0.0420971
0.042097
0.0420969
0.0420968
0.0420967
0.0420966
0.0420965
0.0420965
0.0420964
0.0420964
0.0420963
0.0420962
0.042096
0.0420958
0.0420955
0.0420951
0.0420945
0.0420937
0.0420926
0.0420912
0.0420897
0.0420879
0.0420861
0.0420843
0.0420825
0.0420808
0.042079
0.0420774
0.0420758
0.0420743
0.0420729
0.0420715
0.0420702
0.042069
0.0420679
0.0420668
0.0420658
0.0420649
0.042064
0.0420631
0.0420927
0.0420923
0.0420918
0.0420914
0.0420909
0.0420905
0.04209
0.0420896
0.0420892
0.0420888
0.0420885
0.0420883
0.0420881
0.042088
0.0420879
0.0420879
0.0420879
0.0420879
0.0420879
0.042088
0.042088
0.042088
0.0420879
0.0420877
0.0420875
0.0420871
0.0420867
0.0420862
0.0420858
0.0420853
0.0420849
0.0420845
0.042084
0.0420835
0.0420831
0.0420826
0.0420821
0.0420816
0.0420811
0.0420806
0.04208
0.0420795
0.0420917
0.0420913
0.0420909
0.0420906
0.0420903
0.0420899
0.0420896
0.0420892
0.0420888
0.0420885
0.0420881
0.0420879
0.0420876
0.0420874
0.0420871
0.0420869
0.0420867
0.0420865
0.0420863
0.0420861
0.0420859
0.0420857
0.0420855
0.0420852
0.0420849
0.0420846
0.0420842
0.0420838
0.0420833
0.0420828
0.0420823
0.0420818
0.0420813
0.0420808
0.0420802
0.0420798
0.0420793
0.0420788
0.0420784
0.0420779
0.0420775
0.0420771
0.0420966
0.0420963
0.042096
0.0420956
0.0420951
0.0420945
0.0420939
0.0420933
0.0420926
0.042092
0.0420914
0.0420908
0.0420902
0.0420896
0.0420891
0.0420885
0.0420881
0.0420877
0.0420873
0.042087
0.0420867
0.0420865
0.0420862
0.042086
0.0420857
0.0420855
0.0420852
0.0420849
0.0420846
0.0420843
0.042084
0.0420836
0.0420833
0.042083
0.0420826
0.0420823
0.042082
0.0420818
0.0420815
0.0420812
0.042081
0.0420807
0.0421034
0.042103
0.0421025
0.042102
0.0421015
0.042101
0.0421006
0.0421002
0.0420999
0.0420996
0.0420994
0.0420991
0.0420989
0.0420987
0.0420985
0.0420983
0.0420982
0.042098
0.0420979
0.0420978
0.0420977
0.0420976
0.0420975
0.0420975
0.0420974
0.0420974
0.0420973
0.0420972
0.0420972
0.0420971
0.042097
0.042097
0.0420969
0.0420968
0.0420967
0.0420965
0.0420964
0.0420963
0.0420961
0.042096
0.0420959
0.0420957
0.0421127
0.0421126
0.0421126
0.0421126
0.0421127
0.0421128
0.0421129
0.0421131
0.0421132
0.0421133
0.0421134
0.0421135
0.0421135
0.0421134
0.0421133
0.0421132
0.0421131
0.0421129
0.0421127
0.0421125
0.0421123
0.0421121
0.0421119
0.0421117
0.0421115
0.0421113
0.0421111
0.0421109
0.0421107
0.0421106
0.0421104
0.0421103
0.0421102
0.0421101
0.0421099
0.0421098
0.0421097
0.0421096
0.0421095
0.0421094
0.0421093
0.0421092
0.0421249
0.0421252
0.0421255
0.0421258
0.0421261
0.0421264
0.0421267
0.042127
0.0421272
0.0421273
0.0421275
0.0421276
0.0421276
0.0421276
0.0421276
0.0421276
0.0421275
0.0421274
0.0421273
0.0421272
0.042127
0.0421269
0.0421268
0.0421266
0.0421265
0.0421264
0.0421263
0.0421262
0.0421261
0.042126
0.042126
0.0421259
0.0421259
0.0421259
0.0421258
0.0421257
0.0421258
0.0421257
0.0421257
0.0421258
0.0421256
0.0421256