/*--------------------------------*- C++ -*----------------------------------*\
| =========                 |                                                 |
| \\      /  F ield         | OpenFOAM: The Open Source CFD Toolbox           |
|  \\    /   O peration     | Version:  2412                                  |
|   \\  /    A nd           | Website:  www.openfoam.com                      |
|    \\/     M anipulation  |                                                 |
\*---------------------------------------------------------------------------*/
FoamFile
{
    version     2.0;
    format      ascii;
    arch        "LSB;label=32;scalar=64";
    class       volVectorField;
    location    "0.054";
    object      U;
}
// * * * * * * * * * * * * * * * * * * * * * * * * * * * * * * * * * * * * * //

dimensions      [0 1 -1 0 0 0 0];

internalField   nonuniform List<vector> 
9816
(
(184.864 -30.6099 0)
(184.771 -30.9348 0)
(184.691 -31.2525 0)
(184.626 -31.5626 0)
(184.569 -31.8642 0)
(184.543 -32.1602 0)
(184.507 -32.4481 0)
(184.466 -32.7224 0)
(184.466 -32.9937 0)
(184.454 -33.2545 0)
(184.46 -33.508 0)
(184.46 -33.7521 0)
(184.477 -33.989 0)
(184.488 -34.2163 0)
(184.506 -34.4359 0)
(184.548 -34.6468 0)
(184.535 -34.8527 0)
(184.639 -35.0616 0)
(184.793 -35.2668 0)
(184.985 -35.4725 0)
(185.211 -35.6734 0)
(185.453 -35.868 0)
(185.686 -36.0537 0)
(185.883 -36.2233 0)
(186.021 -36.3707 0)
(186.064 -36.5101 0)
(185.983 -36.5885 0)
(185.71 -36.5823 0)
(185.166 -36.6003 0)
(184.354 -36.4809 0)
(183.278 -36.4234 0)
(181.977 -36.1982 0)
(180.381 -36.0578 0)
(178.463 -35.6561 0)
(176.082 -35.352 0)
(173.246 -34.7589 0)
(169.862 -34.3325 0)
(166.076 -33.4551 0)
(161.838 -32.9264 0)
(157.425 -32.0457 0)
(152.989 -31.3934 0)
(149.073 -30.6553 0)
(191.844 -30.7758 0)
(191.852 -30.9647 0)
(191.855 -31.1437 0)
(191.874 -31.3148 0)
(191.888 -31.4771 0)
(191.921 -31.6318 0)
(191.936 -31.7772 0)
(191.947 -31.9146 0)
(191.963 -32.0462 0)
(192.007 -32.1724 0)
(192.021 -32.2929 0)
(192.08 -32.4068 0)
(192.099 -32.5202 0)
(192.166 -32.6201 0)
(192.17 -32.7336 0)
(192.268 -32.8307 0)
(192.419 -32.9383 0)
(192.605 -33.0345 0)
(192.773 -33.1375 0)
(192.9 -33.2158 0)
(192.965 -33.2925 0)
(192.979 -33.3495 0)
(192.884 -33.3639 0)
(192.528 -33.3147 0)
(191.817 -33.2603 0)
(190.788 -33.1144 0)
(189.458 -32.9574 0)
(187.827 -32.7013 0)
(185.831 -32.3976 0)
(183.416 -32 0)
(180.552 -31.5133 0)
(177.26 -30.9915 0)
(173.672 -30.3323 0)
(169.95 -29.7966 0)
(166.402 -29.1189 0)
(163.209 -28.7361 0)
(160.616 -28.2141 0)
(158.626 -28.0943 0)
(157.336 -27.7148 0)
(156.515 -27.7027 0)
(156.068 -27.6855 0)
(155.894 -27.7642 0)
(195.476 -30.6198 0)
(195.492 -30.7541 0)
(195.514 -30.8839 0)
(195.541 -31.0094 0)
(195.572 -31.1315 0)
(195.614 -31.2488 0)
(195.646 -31.3628 0)
(195.683 -31.4707 0)
(195.681 -31.5771 0)
(195.737 -31.6749 0)
(195.758 -31.7775 0)
(195.818 -31.8654 0)
(195.839 -31.9642 0)
(195.909 -32.0482 0)
(195.986 -32.1376 0)
(196.071 -32.2209 0)
(196.148 -32.296 0)
(196.192 -32.3653 0)
(196.185 -32.4317 0)
(196.077 -32.453 0)
(195.766 -32.4355 0)
(195.153 -32.3655 0)
(194.201 -32.2661 0)
(192.89 -32.0828 0)
(191.152 -31.8248 0)
(188.913 -31.4588 0)
(186.162 -31.0296 0)
(182.973 -30.5103 0)
(179.468 -29.9473 0)
(175.81 -29.357 0)
(172.201 -28.7612 0)
(168.858 -28.2346 0)
(165.993 -27.7767 0)
(163.727 -27.5134 0)
(162.131 -27.2203 0)
(161.109 -27.026 0)
(160.506 -27.0482 0)
(160.203 -27.1235 0)
(160.113 -27.0592 0)
(160.113 -27.0233 0)
(160.209 -27.0629 0)
(160.525 -27.128 0)
(198.155 -30.8068 0)
(198.195 -30.9185 0)
(198.24 -31.0274 0)
(198.297 -31.131 0)
(198.35 -31.2343 0)
(198.415 -31.3294 0)
(198.468 -31.4242 0)
(198.52 -31.5086 0)
(198.528 -31.5965 0)
(198.581 -31.6704 0)
(198.621 -31.7493 0)
(198.675 -31.8168 0)
(198.718 -31.8868 0)
(198.765 -31.9481 0)
(198.8 -32.0055 0)
(198.808 -32.0585 0)
(198.764 -32.1049 0)
(198.616 -32.1023 0)
(198.269 -32.1026 0)
(197.636 -32.001 0)
(196.624 -31.9263 0)
(195.184 -31.6835 0)
(193.198 -31.4339 0)
(190.644 -31.005 0)
(187.516 -30.5618 0)
(183.937 -29.9688 0)
(180.071 -29.3903 0)
(176.189 -28.7645 0)
(172.56 -28.2141 0)
(169.434 -27.7464 0)
(166.979 -27.3196 0)
(165.211 -27.0693 0)
(164.066 -27.0536 0)
(163.43 -26.9611 0)
(163.145 -26.7838 0)
(163.019 -26.7368 0)
(162.994 -26.8531 0)
(163.054 -26.9758 0)
(163.272 -27.0358 0)
(163.684 -27.0945 0)
(164.258 -27.1733 0)
(164.933 -27.2341 0)
(200.163 -30.7377 0)
(200.206 -30.8182 0)
(200.247 -30.8954 0)
(200.293 -30.9657 0)
(200.332 -31.0331 0)
(200.369 -31.0935 0)
(200.396 -31.1488 0)
(200.412 -31.1978 0)
(200.402 -31.2432 0)
(200.417 -31.2851 0)
(200.433 -31.3252 0)
(200.445 -31.3619 0)
(200.448 -31.3951 0)
(200.442 -31.4244 0)
(200.412 -31.4502 0)
(200.33 -31.4611 0)
(200.136 -31.4572 0)
(199.744 -31.4041 0)
(199.03 -31.3369 0)
(197.873 -31.1689 0)
(196.13 -30.9338 0)
(193.71 -30.5751 0)
(190.594 -30.1304 0)
(186.882 -29.5679 0)
(182.78 -28.977 0)
(178.602 -28.336 0)
(174.681 -27.7782 0)
(171.327 -27.2955 0)
(168.736 -26.853 0)
(166.925 -26.5859 0)
(165.798 -26.6281 0)
(165.215 -26.5289 0)
(164.981 -26.3523 0)
(164.897 -26.2919 0)
(164.897 -26.3595 0)
(164.963 -26.4847 0)
(165.17 -26.5479 0)
(165.547 -26.6435 0)
(166.078 -26.7129 0)
(166.702 -26.7768 0)
(167.358 -26.8238 0)
(167.993 -26.8774 0)
(201.571 -30.5154 0)
(201.585 -30.5694 0)
(201.595 -30.6183 0)
(201.601 -30.6627 0)
(201.598 -30.7029 0)
(201.584 -30.7382 0)
(201.563 -30.7676 0)
(201.542 -30.792 0)
(201.528 -30.8177 0)
(201.515 -30.844 0)
(201.517 -30.8717 0)
(201.505 -30.8978 0)
(201.476 -30.9115 0)
(201.424 -30.9173 0)
(201.322 -30.9243 0)
(201.119 -30.9319 0)
(200.736 -30.853 0)
(200.03 -30.7813 0)
(198.857 -30.6231 0)
(197.06 -30.3621 0)
(194.519 -29.9974 0)
(191.214 -29.533 0)
(187.274 -28.9529 0)
(182.961 -28.3423 0)
(178.652 -27.7426 0)
(174.743 -27.1798 0)
(171.547 -26.6571 0)
(169.184 -26.4151 0)
(167.64 -26.3462 0)
(166.812 -26.088 0)
(166.425 -25.9257 0)
(166.277 -25.9817 0)
(166.25 -26.1003 0)
(166.278 -26.1469 0)
(166.4 -26.1843 0)
(166.675 -26.1866 0)
(167.106 -26.2306 0)
(167.659 -26.258 0)
(168.268 -26.3452 0)
(168.878 -26.4303 0)
(169.436 -26.5584 0)
(169.933 -26.6672 0)
(202.611 -30.4903 0)
(202.597 -30.5298 0)
(202.579 -30.5655 0)
(202.554 -30.5967 0)
(202.522 -30.6233 0)
(202.486 -30.6468 0)
(202.45 -30.672 0)
(202.421 -30.693 0)
(202.404 -30.7143 0)
(202.387 -30.7337 0)
(202.379 -30.7602 0)
(202.353 -30.7865 0)
(202.298 -30.8044 0)
(202.188 -30.7848 0)
(201.97 -30.7732 0)
(201.561 -30.764 0)
(200.857 -30.6316 0)
(199.691 -30.4945 0)
(197.909 -30.2481 0)
(195.381 -29.8778 0)
(192.078 -29.3949 0)
(188.114 -28.8558 0)
(183.787 -28.1959 0)
(179.461 -27.6613 0)
(175.589 -27.023 0)
(172.44 -26.6013 0)
(170.158 -26.3942 0)
(168.711 -26.2634 0)
(167.965 -25.9757 0)
(167.618 -25.8947 0)
(167.507 -26.0034 0)
(167.486 -26.1144 0)
(167.524 -26.1407 0)
(167.671 -26.1562 0)
(167.969 -26.1671 0)
(168.417 -26.1838 0)
(168.974 -26.2359 0)
(169.578 -26.3209 0)
(170.162 -26.4374 0)
(170.688 -26.5604 0)
(171.141 -26.6816 0)
(171.528 -26.779 0)
(203.453 -30.6051 0)
(203.423 -30.6388 0)
(203.39 -30.6699 0)
(203.353 -30.6985 0)
(203.313 -30.7241 0)
(203.275 -30.749 0)
(203.243 -30.7766 0)
(203.218 -30.8036 0)
(203.201 -30.8287 0)
(203.196 -30.8558 0)
(203.176 -30.881 0)
(203.127 -30.9029 0)
(203.025 -30.9185 0)
(202.824 -30.9 0)
(202.438 -30.8595 0)
(201.741 -30.7924 0)
(200.583 -30.6184 0)
(198.798 -30.3743 0)
(196.267 -30.0238 0)
(192.969 -29.5321 0)
(189.019 -28.9861 0)
(184.71 -28.3476 0)
(180.42 -27.7695 0)
(176.576 -27.1597 0)
(173.452 -26.8459 0)
(171.221 -26.5345 0)
(169.838 -26.2203 0)
(169.092 -26.11 0)
(168.771 -26.2404 0)
(168.682 -26.2847 0)
(168.673 -26.2656 0)
(168.724 -26.2368 0)
(168.889 -26.227 0)
(169.192 -26.2602 0)
(169.639 -26.3348 0)
(170.194 -26.4586 0)
(170.796 -26.5806 0)
(171.373 -26.7111 0)
(171.891 -26.8047 0)
(172.33 -26.8789 0)
(172.698 -26.9147 0)
(173.009 -26.9363 0)
(204.23 -30.7206 0)
(204.199 -30.7563 0)
(204.17 -30.7891 0)
(204.143 -30.8208 0)
(204.114 -30.8508 0)
(204.099 -30.8905 0)
(204.077 -30.9257 0)
(204.077 -30.9585 0)
(204.072 -30.9854 0)
(204.062 -31.0161 0)
(204.027 -31.0547 0)
(203.941 -31.0908 0)
(203.762 -31.0773 0)
(203.411 -31.0153 0)
(202.744 -30.9984 0)
(201.629 -30.8411 0)
(199.889 -30.5708 0)
(197.379 -30.2711 0)
(194.094 -29.7716 0)
(190.14 -29.2388 0)
(185.819 -28.6015 0)
(181.511 -28.0237 0)
(177.644 -27.4282 0)
(174.496 -27.1403 0)
(172.267 -26.7381 0)
(170.868 -26.4506 0)
(170.109 -26.4205 0)
(169.788 -26.5421 0)
(169.703 -26.5338 0)
(169.698 -26.4899 0)
(169.756 -26.4358 0)
(169.905 -26.4426 0)
(170.188 -26.4932 0)
(170.618 -26.5928 0)
(171.168 -26.7197 0)
(171.769 -26.8465 0)
(172.352 -26.9575 0)
(172.875 -27.0351 0)
(173.319 -27.0763 0)
(173.685 -27.0963 0)
(173.988 -27.0989 0)
(174.244 -27.1059 0)
(205.004 -30.7782 0)
(204.999 -30.8188 0)
(204.981 -30.8562 0)
(204.985 -30.8944 0)
(204.976 -30.9359 0)
(204.987 -30.9778 0)
(204.993 -31.0195 0)
(205.009 -31.0544 0)
(205.013 -31.0889 0)
(204.994 -31.1261 0)
(204.932 -31.1602 0)
(204.791 -31.1818 0)
(204.501 -31.1458 0)
(203.943 -31.0844 0)
(202.957 -31.0157 0)
(201.385 -30.7688 0)
(199.056 -30.4867 0)
(195.926 -30.0579 0)
(192.075 -29.5497 0)
(187.765 -28.9543 0)
(183.377 -28.3682 0)
(179.335 -27.8432 0)
(175.989 -27.4158 0)
(173.535 -26.996 0)
(171.93 -26.8535 0)
(171.019 -26.8785 0)
(170.62 -26.7593 0)
(170.509 -26.6619 0)
(170.487 -26.6418 0)
(170.509 -26.6858 0)
(170.604 -26.7718 0)
(170.83 -26.8272 0)
(171.21 -26.9053 0)
(171.724 -26.9654 0)
(172.308 -27.0338 0)
(172.902 -27.0773 0)
(173.448 -27.1334 0)
(173.919 -27.1771 0)
(174.303 -27.238 0)
(174.615 -27.2922 0)
(174.87 -27.358 0)
(175.091 -27.4151 0)
(205.757 -30.8578 0)
(205.774 -30.8954 0)
(205.783 -30.9385 0)
(205.806 -30.9754 0)
(205.824 -31.0157 0)
(205.848 -31.052 0)
(205.867 -31.0902 0)
(205.885 -31.1239 0)
(205.883 -31.1607 0)
(205.847 -31.1885 0)
(205.757 -31.191 0)
(205.554 -31.2056 0)
(205.148 -31.1616 0)
(204.401 -31.0926 0)
(203.152 -30.9216 0)
(201.224 -30.7171 0)
(198.524 -30.331 0)
(195.038 -29.9231 0)
(190.949 -29.3716 0)
(186.559 -28.8261 0)
(182.281 -28.3042 0)
(178.518 -27.8012 0)
(175.541 -27.3877 0)
(173.428 -27.2091 0)
(172.107 -27.1386 0)
(171.451 -26.9163 0)
(171.185 -26.827 0)
(171.104 -26.8714 0)
(171.099 -26.9563 0)
(171.136 -26.9992 0)
(171.265 -27.018 0)
(171.538 -27.0374 0)
(171.952 -27.06 0)
(172.475 -27.0973 0)
(173.049 -27.1623 0)
(173.614 -27.2389 0)
(174.122 -27.3315 0)
(174.554 -27.4139 0)
(174.908 -27.4936 0)
(175.2 -27.5509 0)
(175.444 -27.5964 0)
(175.66 -27.6169 0)
(206.422 -31.0436 0)
(206.449 -31.0776 0)
(206.476 -31.1111 0)
(206.502 -31.1436 0)
(206.525 -31.1741 0)
(206.542 -31.202 0)
(206.556 -31.2241 0)
(206.561 -31.2464 0)
(206.546 -31.2695 0)
(206.495 -31.2793 0)
(206.371 -31.288 0)
(206.109 -31.2501 0)
(205.602 -31.2005 0)
(204.711 -31.1045 0)
(203.287 -30.918 0)
(201.187 -30.6573 0)
(198.33 -30.3165 0)
(194.758 -29.847 0)
(190.643 -29.3583 0)
(186.316 -28.8018 0)
(182.156 -28.3279 0)
(178.553 -27.7992 0)
(175.713 -27.5312 0)
(173.735 -27.3613 0)
(172.57 -27.1173 0)
(171.994 -26.9625 0)
(171.758 -27.0274 0)
(171.695 -27.12 0)
(171.69 -27.1403 0)
(171.734 -27.1297 0)
(171.879 -27.1097 0)
(172.151 -27.1118 0)
(172.55 -27.1513 0)
(173.053 -27.2166 0)
(173.603 -27.3208 0)
(174.147 -27.419 0)
(174.636 -27.5214 0)
(175.058 -27.5941 0)
(175.408 -27.6515 0)
(175.699 -27.6754 0)
(175.947 -27.6884 0)
(176.166 -27.6836 0)
(206.938 -31.3147 0)
(206.959 -31.3375 0)
(206.976 -31.3569 0)
(206.986 -31.3741 0)
(206.99 -31.3885 0)
(206.987 -31.3995 0)
(206.978 -31.4082 0)
(206.96 -31.4105 0)
(206.92 -31.4133 0)
(206.834 -31.4048 0)
(206.661 -31.4028 0)
(206.344 -31.3313 0)
(205.769 -31.2998 0)
(204.822 -31.1522 0)
(203.333 -30.9966 0)
(201.18 -30.6916 0)
(198.273 -30.3757 0)
(194.688 -29.8829 0)
(190.598 -29.4211 0)
(186.346 -28.8595 0)
(182.297 -28.3776 0)
(178.812 -27.9223 0)
(176.101 -27.7134 0)
(174.27 -27.3919 0)
(173.179 -27.1888 0)
(172.623 -27.213 0)
(172.41 -27.3004 0)
(172.357 -27.2914 0)
(172.355 -27.2543 0)
(172.409 -27.2147 0)
(172.542 -27.2262 0)
(172.793 -27.2684 0)
(173.172 -27.3502 0)
(173.657 -27.4477 0)
(174.193 -27.5494 0)
(174.723 -27.6338 0)
(175.207 -27.7006 0)
(175.627 -27.7354 0)
(175.978 -27.7615 0)
(176.271 -27.7705 0)
(176.518 -27.7876 0)
(176.735 -27.8062 0)
(207.252 -31.5922 0)
(207.241 -31.6029 0)
(207.224 -31.6101 0)
(207.202 -31.6135 0)
(207.176 -31.6168 0)
(207.147 -31.6152 0)
(207.115 -31.6168 0)
(207.076 -31.6071 0)
(207.014 -31.6132 0)
(206.91 -31.5837 0)
(206.717 -31.5858 0)
(206.38 -31.5016 0)
(205.775 -31.4751 0)
(204.79 -31.2937 0)
(203.244 -31.1501 0)
(201.035 -30.8186 0)
(198.083 -30.4907 0)
(194.481 -29.9977 0)
(190.424 -29.5243 0)
(186.263 -28.9729 0)
(182.363 -28.4935 0)
(179.055 -28.1046 0)
(176.521 -27.8648 0)
(174.836 -27.5199 0)
(173.834 -27.3921 0)
(173.329 -27.4779 0)
(173.146 -27.5115 0)
(173.105 -27.4748 0)
(173.109 -27.4252 0)
(173.164 -27.4 0)
(173.293 -27.4352 0)
(173.541 -27.4961 0)
(173.919 -27.59 0)
(174.399 -27.69 0)
(174.926 -27.7858 0)
(175.445 -27.8559 0)
(175.919 -27.909 0)
(176.33 -27.931 0)
(176.672 -27.9531 0)
(176.956 -27.9647 0)
(177.195 -27.992 0)
(177.405 -28.0241 0)
(207.477 -31.8529 0)
(207.439 -31.858 0)
(207.399 -31.8626 0)
(207.358 -31.8638 0)
(207.317 -31.8676 0)
(207.277 -31.8652 0)
(207.237 -31.8701 0)
(207.189 -31.8622 0)
(207.117 -31.8726 0)
(206.997 -31.8402 0)
(206.776 -31.8465 0)
(206.394 -31.7563 0)
(205.72 -31.7332 0)
(204.644 -31.5193 0)
(202.979 -31.3909 0)
(200.655 -30.9997 0)
(197.596 -30.6901 0)
(193.948 -30.1458 0)
(189.913 -29.6933 0)
(185.869 -29.1143 0)
(182.155 -28.6871 0)
(179.079 -28.3299 0)
(176.808 -27.9958 0)
(175.319 -27.7522 0)
(174.457 -27.7924 0)
(174.062 -27.7925 0)
(173.932 -27.7256 0)
(173.906 -27.6685 0)
(173.92 -27.6599 0)
(173.973 -27.7016 0)
(174.122 -27.7766 0)
(174.397 -27.8586 0)
(174.802 -27.925 0)
(175.291 -28.0113 0)
(175.813 -28.0592 0)
(176.319 -28.1084 0)
(176.773 -28.1399 0)
(177.158 -28.1762 0)
(177.475 -28.2152 0)
(177.735 -28.2614 0)
(177.953 -28.3155 0)
(178.145 -28.3723 0)
(207.758 -32.0627 0)
(207.71 -32.072 0)
(207.662 -32.081 0)
(207.617 -32.0893 0)
(207.576 -32.0985 0)
(207.539 -32.1068 0)
(207.503 -32.1168 0)
(207.458 -32.1258 0)
(207.385 -32.133 0)
(207.253 -32.1233 0)
(207.007 -32.1125 0)
(206.563 -32.05 0)
(205.791 -31.9865 0)
(204.56 -31.7996 0)
(202.715 -31.6132 0)
(200.188 -31.2468 0)
(196.967 -30.879 0)
(193.217 -30.358 0)
(189.192 -29.8742 0)
(185.264 -29.3557 0)
(181.77 -28.9448 0)
(178.986 -28.5352 0)
(176.989 -28.2927 0)
(175.718 -28.2737 0)
(175.053 -28.1545 0)
(174.779 -28.0366 0)
(174.68 -28.0131 0)
(174.665 -28.0699 0)
(174.682 -28.1476 0)
(174.76 -28.1821 0)
(174.955 -28.2072 0)
(175.278 -28.2501 0)
(175.711 -28.2734 0)
(176.206 -28.335 0)
(176.717 -28.3825 0)
(177.191 -28.4667 0)
(177.608 -28.5304 0)
(177.951 -28.6115 0)
(178.236 -28.6684 0)
(178.469 -28.7262 0)
(178.67 -28.7612 0)
(178.85 -28.7898 0)
(208.135 -32.2473 0)
(208.097 -32.2664 0)
(208.06 -32.2846 0)
(208.028 -32.3053 0)
(207.995 -32.3238 0)
(207.969 -32.3433 0)
(207.954 -32.3664 0)
(207.922 -32.3919 0)
(207.849 -32.399 0)
(207.705 -32.4085 0)
(207.429 -32.3845 0)
(206.925 -32.3448 0)
(206.068 -32.2474 0)
(204.711 -32.0854 0)
(202.717 -31.8503 0)
(200.019 -31.5057 0)
(196.655 -31.1046 0)
(192.815 -30.6121 0)
(188.795 -30.1258 0)
(184.962 -29.6682 0)
(181.653 -29.2111 0)
(179.067 -28.9053 0)
(177.263 -28.7721 0)
(176.179 -28.6142 0)
(175.638 -28.4502 0)
(175.411 -28.4465 0)
(175.347 -28.5326 0)
(175.337 -28.5803 0)
(175.365 -28.5809 0)
(175.471 -28.5811 0)
(175.69 -28.5826 0)
(176.024 -28.6128 0)
(176.457 -28.6574 0)
(176.939 -28.7432 0)
(177.426 -28.8221 0)
(177.87 -28.9179 0)
(178.257 -28.9858 0)
(178.578 -29.0501 0)
(178.845 -29.0814 0)
(179.067 -29.1058 0)
(179.259 -29.1088 0)
(179.433 -29.1131 0)
(208.574 -32.4442 0)
(208.57 -32.4681 0)
(208.566 -32.4935 0)
(208.562 -32.5194 0)
(208.555 -32.5457 0)
(208.548 -32.5716 0)
(208.546 -32.5983 0)
(208.522 -32.6297 0)
(208.453 -32.6395 0)
(208.301 -32.6505 0)
(208 -32.6281 0)
(207.446 -32.5851 0)
(206.512 -32.4869 0)
(205.057 -32.3162 0)
(202.958 -32.0828 0)
(200.172 -31.729 0)
(196.75 -31.3328 0)
(192.893 -30.8401 0)
(188.899 -30.3621 0)
(185.13 -29.9247 0)
(181.916 -29.4986 0)
(179.445 -29.1786 0)
(177.743 -29.0596 0)
(176.724 -29 0)
(176.235 -28.8339 0)
(176.03 -28.7722 0)
(175.967 -28.8096 0)
(175.96 -28.8847 0)
(175.986 -28.927 0)
(176.081 -28.9418 0)
(176.285 -28.9539 0)
(176.601 -28.9721 0)
(177.009 -28.9964 0)
(177.467 -29.0517 0)
(177.929 -29.1107 0)
(178.356 -29.1919 0)
(178.73 -29.2599 0)
(179.043 -29.3318 0)
(179.305 -29.3801 0)
(179.524 -29.4217 0)
(179.715 -29.4403 0)
(179.888 -29.4525 0)
(208.953 -32.7031 0)
(208.976 -32.7241 0)
(208.997 -32.7445 0)
(209.013 -32.7626 0)
(209.023 -32.7793 0)
(209.027 -32.7934 0)
(209.023 -32.8082 0)
(209.002 -32.8234 0)
(208.943 -32.8181 0)
(208.799 -32.8243 0)
(208.505 -32.7799 0)
(207.951 -32.7483 0)
(207.021 -32.6222 0)
(205.565 -32.4846 0)
(203.479 -32.2249 0)
(200.704 -31.9189 0)
(197.312 -31.5189 0)
(193.494 -31.0694 0)
(189.553 -30.6202 0)
(185.838 -30.1858 0)
(182.655 -29.793 0)
(180.181 -29.5575 0)
(178.46 -29.3961 0)
(177.424 -29.1952 0)
(176.88 -29.1084 0)
(176.645 -29.1785 0)
(176.575 -29.2241 0)
(176.56 -29.2191 0)
(176.575 -29.1979 0)
(176.654 -29.1847 0)
(176.818 -29.1993 0)
(177.081 -29.2427 0)
(177.439 -29.3047 0)
(177.855 -29.3857 0)
(178.289 -29.4558 0)
(178.703 -29.5262 0)
(179.076 -29.5691 0)
(179.398 -29.6052 0)
(179.671 -29.6211 0)
(179.903 -29.6375 0)
(180.103 -29.648 0)
(180.283 -29.6675 0)
(209.229 -32.9664 0)
(209.235 -32.9787 0)
(209.236 -32.9877 0)
(209.231 -32.9945 0)
(209.222 -32.9996 0)
(209.21 -33.003 0)
(209.194 -33.0021 0)
(209.163 -33.0071 0)
(209.1 -32.9929 0)
(208.971 -32.9889 0)
(208.718 -32.951 0)
(208.247 -32.9045 0)
(207.432 -32.8147 0)
(206.133 -32.6578 0)
(204.217 -32.4695 0)
(201.635 -32.1445 0)
(198.41 -31.8304 0)
(194.733 -31.3684 0)
(190.86 -30.9832 0)
(187.147 -30.5258 0)
(183.879 -30.2126 0)
(181.289 -29.8668 0)
(179.429 -29.6682 0)
(178.235 -29.6139 0)
(177.58 -29.5483 0)
(177.291 -29.4525 0)
(177.181 -29.4315 0)
(177.157 -29.4656 0)
(177.161 -29.5189 0)
(177.197 -29.5475 0)
(177.312 -29.5616 0)
(177.524 -29.5837 0)
(177.83 -29.606 0)
(178.203 -29.6424 0)
(178.608 -29.6878 0)
(179.008 -29.7457 0)
(179.378 -29.8029 0)
(179.702 -29.8623 0)
(179.981 -29.9111 0)
(180.219 -29.9539 0)
(180.427 -29.9848 0)
(180.614 -30.0076 0)
(209.403 -33.1819 0)
(209.378 -33.186 0)
(209.35 -33.1888 0)
(209.322 -33.189 0)
(209.295 -33.1902 0)
(209.269 -33.1883 0)
(209.241 -33.1886 0)
(209.205 -33.1845 0)
(209.144 -33.1842 0)
(209.033 -33.1623 0)
(208.821 -33.1578 0)
(208.438 -33.0855 0)
(207.757 -33.0548 0)
(206.666 -32.8749 0)
(205.001 -32.7654 0)
(202.709 -32.4317 0)
(199.752 -32.1903 0)
(196.289 -31.7287 0)
(192.523 -31.3863 0)
(188.804 -30.9076 0)
(185.421 -30.5973 0)
(182.644 -30.2648 0)
(180.578 -30.0182 0)
(179.204 -29.8568 0)
(178.391 -29.8918 0)
(178.003 -29.8258 0)
(177.855 -29.7585 0)
(177.805 -29.7364 0)
(177.803 -29.7603 0)
(177.817 -29.8126 0)
(177.885 -29.8578 0)
(178.036 -29.894 0)
(178.28 -29.9229 0)
(178.6 -29.9555 0)
(178.966 -29.9837 0)
(179.344 -30.015 0)
(179.704 -30.0552 0)
(180.028 -30.0981 0)
(180.31 -30.1485 0)
(180.554 -30.1961 0)
(180.766 -30.2452 0)
(180.958 -30.2858 0)
(209.561 -33.3458 0)
(209.521 -33.3483 0)
(209.481 -33.3506 0)
(209.444 -33.3522 0)
(209.411 -33.3554 0)
(209.38 -33.3558 0)
(209.35 -33.3613 0)
(209.315 -33.3572 0)
(209.263 -33.3685 0)
(209.17 -33.3458 0)
(208.994 -33.3573 0)
(208.681 -33.2929 0)
(208.12 -33.2782 0)
(207.207 -33.1373 0)
(205.789 -33.0287 0)
(203.773 -32.7755 0)
(201.107 -32.5079 0)
(197.872 -32.1425 0)
(194.258 -31.7458 0)
(190.56 -31.3401 0)
(187.101 -30.9579 0)
(184.156 -30.6551 0)
(181.895 -30.3714 0)
(180.329 -30.1832 0)
(179.356 -30.1959 0)
(178.855 -30.1424 0)
(178.646 -30.0701 0)
(178.569 -30.0348 0)
(178.552 -30.0552 0)
(178.551 -30.1093 0)
(178.585 -30.1676 0)
(178.682 -30.1877 0)
(178.862 -30.2222 0)
(179.12 -30.2355 0)
(179.432 -30.2644 0)
(179.77 -30.2858 0)
(180.102 -30.3299 0)
(180.412 -30.3704 0)
(180.685 -30.4264 0)
(180.927 -30.4744 0)
(181.14 -30.5268 0)
(181.334 -30.5673 0)
(209.705 -33.4994 0)
(209.672 -33.503 0)
(209.641 -33.5071 0)
(209.612 -33.5123 0)
(209.586 -33.5181 0)
(209.563 -33.5247 0)
(209.541 -33.5324 0)
(209.517 -33.5384 0)
(209.48 -33.548 0)
(209.411 -33.5463 0)
(209.278 -33.5456 0)
(209.029 -33.526 0)
(208.579 -33.484 0)
(207.815 -33.4202 0)
(206.608 -33.275 0)
(204.83 -33.1193 0)
(202.43 -32.816 0)
(199.42 -32.5398 0)
(195.979 -32.1064 0)
(192.346 -31.7609 0)
(188.863 -31.3237 0)
(185.797 -31.0515 0)
(183.367 -30.7465 0)
(181.62 -30.537 0)
(180.493 -30.4617 0)
(179.857 -30.4778 0)
(179.566 -30.4103 0)
(179.458 -30.3563 0)
(179.416 -30.3583 0)
(179.413 -30.3941 0)
(179.42 -30.4522 0)
(179.47 -30.4896 0)
(179.585 -30.5202 0)
(179.77 -30.5378 0)
(180.013 -30.5575 0)
(180.292 -30.5773 0)
(180.582 -30.6026 0)
(180.861 -30.6402 0)
(181.118 -30.6816 0)
(181.349 -30.7313 0)
(181.558 -30.7785 0)
(181.751 -30.8263 0)
(209.822 -33.6976 0)
(209.805 -33.7024 0)
(209.793 -33.7094 0)
(209.779 -33.7154 0)
(209.768 -33.7225 0)
(209.757 -33.7292 0)
(209.748 -33.7362 0)
(209.737 -33.7439 0)
(209.718 -33.7491 0)
(209.678 -33.7561 0)
(209.588 -33.7455 0)
(209.401 -33.7465 0)
(209.047 -33.692 0)
(208.413 -33.6631 0)
(207.389 -33.5135 0)
(205.831 -33.4004 0)
(203.681 -33.1123 0)
(200.915 -32.8644 0)
(197.673 -32.4631 0)
(194.163 -32.1133 0)
(190.696 -31.7118 0)
(187.561 -31.3739 0)
(184.982 -31.0997 0)
(183.054 -30.9258 0)
(181.766 -30.755 0)
(180.995 -30.6586 0)
(180.589 -30.6854 0)
(180.414 -30.706 0)
(180.356 -30.6992 0)
(180.339 -30.6855 0)
(180.342 -30.6795 0)
(180.357 -30.7016 0)
(180.414 -30.7363 0)
(180.525 -30.777 0)
(180.691 -30.8159 0)
(180.898 -30.8612 0)
(181.13 -30.8875 0)
(181.368 -30.9158 0)
(181.6 -30.9333 0)
(181.817 -30.9548 0)
(182.021 -30.9758 0)
(182.212 -31.0046 0)
(209.926 -33.9648 0)
(209.916 -33.9709 0)
(209.908 -33.9764 0)
(209.897 -33.9813 0)
(209.886 -33.9857 0)
(209.874 -33.9893 0)
(209.86 -33.9918 0)
(209.845 -33.9946 0)
(209.826 -33.992 0)
(209.79 -33.9999 0)
(209.718 -33.9795 0)
(209.57 -33.9833 0)
(209.293 -33.9288 0)
(208.783 -33.8984 0)
(207.934 -33.7773 0)
(206.607 -33.6519 0)
(204.716 -33.4281 0)
(202.226 -33.1551 0)
(199.217 -32.8292 0)
(195.88 -32.4408 0)
(192.479 -32.0884 0)
(189.317 -31.7191 0)
(186.626 -31.4385 0)
(184.549 -31.1953 0)
(183.088 -31.1005 0)
(182.176 -30.9811 0)
(181.669 -30.8984 0)
(181.422 -30.8985 0)
(181.324 -30.9485 0)
(181.295 -30.9736 0)
(181.286 -30.9797 0)
(181.285 -30.9753 0)
(181.308 -30.9726 0)
(181.365 -30.9843 0)
(181.463 -31.0114 0)
(181.603 -31.0481 0)
(181.774 -31.094 0)
(181.965 -31.1341 0)
(182.161 -31.1746 0)
(182.357 -31.2007 0)
(182.547 -31.2237 0)
(182.732 -31.238 0)
(209.996 -34.2908 0)
(209.979 -34.2949 0)
(209.959 -34.2979 0)
(209.939 -34.2995 0)
(209.917 -34.3007 0)
(209.894 -34.3004 0)
(209.871 -34.3003 0)
(209.847 -34.2986 0)
(209.818 -34.296 0)
(209.775 -34.2937 0)
(209.699 -34.2848 0)
(209.562 -34.2659 0)
(209.311 -34.2441 0)
(208.875 -34.1763 0)
(208.14 -34.1158 0)
(206.999 -33.9415 0)
(205.326 -33.7935 0)
(203.091 -33.4725 0)
(200.309 -33.2092 0)
(197.164 -32.784 0)
(193.876 -32.4575 0)
(190.753 -32.0619 0)
(188.029 -31.7827 0)
(185.878 -31.4993 0)
(184.322 -31.3943 0)
(183.314 -31.2914 0)
(182.737 -31.1886 0)
(182.443 -31.1469 0)
(182.314 -31.1925 0)
(182.268 -31.2417 0)
(182.254 -31.2576 0)
(182.247 -31.2554 0)
(182.252 -31.2459 0)
(182.277 -31.2441 0)
(182.33 -31.258 0)
(182.417 -31.2892 0)
(182.539 -31.3267 0)
(182.686 -31.3735 0)
(182.849 -31.4141 0)
(183.02 -31.4503 0)
(183.193 -31.4743 0)
(183.368 -31.4917 0)
(210.059 -34.6452 0)
(210.028 -34.649 0)
(209.996 -34.6525 0)
(209.965 -34.6544 0)
(209.934 -34.657 0)
(209.903 -34.6574 0)
(209.873 -34.6601 0)
(209.843 -34.6587 0)
(209.809 -34.6618 0)
(209.763 -34.6556 0)
(209.684 -34.6599 0)
(209.547 -34.6295 0)
(209.295 -34.6285 0)
(208.866 -34.5395 0)
(208.142 -34.5054 0)
(207.038 -34.3084 0)
(205.428 -34.184 0)
(203.298 -33.852 0)
(200.652 -33.5962 0)
(197.66 -33.1758 0)
(194.521 -32.8385 0)
(191.526 -32.4508 0)
(188.903 -32.15 0)
(186.815 -31.9037 0)
(185.298 -31.7767 0)
(184.314 -31.6278 0)
(183.736 -31.5452 0)
(183.432 -31.5587 0)
(183.297 -31.6036 0)
(183.25 -31.6119 0)
(183.235 -31.6044 0)
(183.228 -31.5944 0)
(183.231 -31.5936 0)
(183.236 -31.6129 0)
(183.264 -31.6459 0)
(183.324 -31.6852 0)
(183.413 -31.7188 0)
(183.528 -31.7506 0)
(183.663 -31.7733 0)
(183.81 -31.7896 0)
(183.965 -31.802 0)
(184.123 -31.8144 0)
(210.163 -34.9875 0)
(210.126 -34.9937 0)
(210.09 -34.9997 0)
(210.055 -35.0051 0)
(210.022 -35.0111 0)
(209.99 -35.0161 0)
(209.961 -35.0227 0)
(209.931 -35.0266 0)
(209.899 -35.034 0)
(209.853 -35.0334 0)
(209.775 -35.0411 0)
(209.634 -35.016 0)
(209.373 -35.0155 0)
(208.926 -34.9309 0)
(208.174 -34.8911 0)
(207.03 -34.6956 0)
(205.375 -34.5566 0)
(203.207 -34.227 0)
(200.555 -33.9548 0)
(197.609 -33.5485 0)
(194.585 -33.2072 0)
(191.753 -32.8465 0)
(189.317 -32.5693 0)
(187.409 -32.3276 0)
(186.044 -32.1672 0)
(185.155 -32.1119 0)
(184.637 -32.0637 0)
(184.372 -32.0104 0)
(184.252 -32.0001 0)
(184.205 -32.0307 0)
(184.188 -32.0674 0)
(184.181 -32.09 0)
(184.181 -32.1038 0)
(184.19 -32.1035 0)
(184.218 -32.108 0)
(184.268 -32.1185 0)
(184.34 -32.1369 0)
(184.431 -32.1643 0)
(184.538 -32.1952 0)
(184.655 -32.2293 0)
(184.78 -32.261 0)
(184.911 -32.2905 0)
(210.313 -35.2974 0)
(210.283 -35.3072 0)
(210.254 -35.3162 0)
(210.228 -35.3267 0)
(210.203 -35.3372 0)
(210.179 -35.3477 0)
(210.158 -35.3592 0)
(210.136 -35.37 0)
(210.112 -35.3821 0)
(210.073 -35.3906 0)
(209.998 -35.3976 0)
(209.854 -35.3855 0)
(209.581 -35.376 0)
(209.102 -35.3067 0)
(208.301 -35.2456 0)
(207.084 -35.0654 0)
(205.355 -34.8991 0)
(203.124 -34.5837 0)
(200.456 -34.2982 0)
(197.548 -33.9075 0)
(194.625 -33.5787 0)
(191.945 -33.232 0)
(189.683 -32.9906 0)
(187.947 -32.7683 0)
(186.728 -32.6148 0)
(185.946 -32.5598 0)
(185.492 -32.5601 0)
(185.269 -32.515 0)
(185.174 -32.4877 0)
(185.133 -32.4961 0)
(185.118 -32.5242 0)
(185.11 -32.5595 0)
(185.106 -32.5883 0)
(185.113 -32.605 0)
(185.134 -32.6071 0)
(185.174 -32.6106 0)
(185.23 -32.6138 0)
(185.3 -32.6247 0)
(185.38 -32.6431 0)
(185.468 -32.6694 0)
(185.563 -32.7001 0)
(185.664 -32.7334 0)
(210.481 -35.5939 0)
(210.463 -35.6051 0)
(210.454 -35.6181 0)
(210.445 -35.6313 0)
(210.438 -35.6447 0)
(210.431 -35.6583 0)
(210.422 -35.6719 0)
(210.414 -35.6853 0)
(210.402 -35.6996 0)
(210.374 -35.7131 0)
(210.311 -35.7165 0)
(210.171 -35.7136 0)
(209.892 -35.6919 0)
(209.386 -35.6372 0)
(208.544 -35.552 0)
(207.269 -35.3899 0)
(205.49 -35.1979 0)
(203.225 -34.9016 0)
(200.564 -34.6053 0)
(197.709 -34.2379 0)
(194.887 -33.9184 0)
(192.338 -33.6048 0)
(190.222 -33.3617 0)
(188.614 -33.175 0)
(187.489 -33.0766 0)
(186.776 -32.9883 0)
(186.361 -32.9361 0)
(186.14 -32.9385 0)
(186.036 -32.9598 0)
(185.993 -32.9688 0)
(185.977 -32.9756 0)
(185.972 -32.978 0)
(185.971 -32.9829 0)
(185.976 -32.9961 0)
(185.989 -33.0129 0)
(186.011 -33.0329 0)
(186.043 -33.0527 0)
(186.083 -33.0703 0)
(186.132 -33.0845 0)
(186.19 -33.0953 0)
(186.256 -33.1049 0)
(186.33 -33.1146 0)
(210.652 -35.91 0)
(210.652 -35.9228 0)
(210.654 -35.9351 0)
(210.656 -35.9468 0)
(210.658 -35.9574 0)
(210.656 -35.9671 0)
(210.652 -35.9755 0)
(210.646 -35.9834 0)
(210.636 -35.9912 0)
(210.611 -35.9964 0)
(210.55 -35.9934 0)
(210.411 -35.9809 0)
(210.133 -35.9555 0)
(209.627 -35.8889 0)
(208.786 -35.8083 0)
(207.518 -35.6355 0)
(205.755 -35.4592 0)
(203.529 -35.1619 0)
(200.931 -34.8895 0)
(198.168 -34.5364 0)
(195.455 -34.2405 0)
(193.017 -33.9511 0)
(190.997 -33.7269 0)
(189.457 -33.5495 0)
(188.367 -33.445 0)
(187.653 -33.3903 0)
(187.223 -33.3324 0)
(186.98 -33.3087 0)
(186.852 -33.3161 0)
(186.79 -33.3371 0)
(186.763 -33.3503 0)
(186.752 -33.3589 0)
(186.747 -33.3621 0)
(186.745 -33.3635 0)
(186.747 -33.3699 0)
(186.753 -33.3801 0)
(186.764 -33.3943 0)
(186.78 -33.4107 0)
(186.804 -33.4273 0)
(186.835 -33.4422 0)
(186.873 -33.4541 0)
(186.919 -33.4629 0)
(210.789 -36.2389 0)
(210.785 -36.2466 0)
(210.777 -36.2528 0)
(210.767 -36.2578 0)
(210.755 -36.2615 0)
(210.739 -36.2635 0)
(210.722 -36.2643 0)
(210.703 -36.2639 0)
(210.678 -36.2619 0)
(210.638 -36.2601 0)
(210.562 -36.2508 0)
(210.417 -36.2296 0)
(210.147 -36.2061 0)
(209.677 -36.1299 0)
(208.898 -36.0657 0)
(207.727 -35.8845 0)
(206.081 -35.7387 0)
(203.99 -35.4386 0)
(201.526 -35.2054 0)
(198.893 -34.8531 0)
(196.285 -34.593 0)
(193.924 -34.2965 0)
(191.94 -34.0976 0)
(190.403 -33.9175 0)
(189.292 -33.7979 0)
(188.541 -33.7324 0)
(188.064 -33.6998 0)
(187.781 -33.6692 0)
(187.62 -33.6536 0)
(187.532 -33.6555 0)
(187.485 -33.6689 0)
(187.459 -33.6823 0)
(187.445 -33.6934 0)
(187.436 -33.7014 0)
(187.432 -33.7055 0)
(187.426 -33.7087 0)
(187.424 -33.7128 0)
(187.427 -33.7196 0)
(187.435 -33.7291 0)
(187.448 -33.7404 0)
(187.466 -33.7531 0)
(187.491 -33.7659 0)
(210.853 -36.5779 0)
(210.833 -36.5799 0)
(210.809 -36.5807 0)
(210.784 -36.5797 0)
(210.756 -36.5788 0)
(210.728 -36.5756 0)
(210.7 -36.5737 0)
(210.67 -36.5692 0)
(210.637 -36.5656 0)
(210.589 -36.5599 0)
(210.505 -36.552 0)
(210.358 -36.5252 0)
(210.092 -36.5073 0)
(209.641 -36.4252 0)
(208.902 -36.3708 0)
(207.804 -36.189 0)
(206.266 -36.0551 0)
(204.317 -35.7622 0)
(202.009 -35.5348 0)
(199.523 -35.1926 0)
(197.035 -34.9329 0)
(194.755 -34.6429 0)
(192.813 -34.4369 0)
(191.284 -34.2624 0)
(190.16 -34.1365 0)
(189.384 -34.0545 0)
(188.876 -34.02 0)
(188.561 -33.9996 0)
(188.375 -33.9808 0)
(188.268 -33.9729 0)
(188.205 -33.9779 0)
(188.168 -33.9895 0)
(188.145 -34.0024 0)
(188.13 -34.0143 0)
(188.12 -34.0236 0)
(188.112 -34.0296 0)
(188.109 -34.0335 0)
(188.104 -34.0378 0)
(188.104 -34.0429 0)
(188.107 -34.0502 0)
(188.114 -34.0599 0)
(188.126 -34.0714 0)
(210.883 -36.9267 0)
(210.851 -36.9262 0)
(210.819 -36.9255 0)
(210.785 -36.9233 0)
(210.751 -36.9221 0)
(210.718 -36.9191 0)
(210.686 -36.9179 0)
(210.654 -36.9146 0)
(210.619 -36.9119 0)
(210.569 -36.9091 0)
(210.483 -36.9005 0)
(210.331 -36.8773 0)
(210.057 -36.8557 0)