/*--------------------------------*- C++ -*----------------------------------*\
| =========                 |                                                 |
| \\      /  F ield         | OpenFOAM: The Open Source CFD Toolbox           |
|  \\    /   O peration     | Version:  2412                                  |
|   \\  /    A nd           | Website:  www.openfoam.com                      |
|    \\/     M anipulation  |                                                 |
\*---------------------------------------------------------------------------*/
FoamFile
{
    version     2.0;
    format      ascii;
    arch        "LSB;label=32;scalar=64";
    class       volScalarField;
    location    "0.051";
    object      T;
}
// * * * * * * * * * * * * * * * * * * * * * * * * * * * * * * * * * * * * * //

dimensions      [0 0 0 1 0 0 0];

internalField   nonuniform List<scalar> 
9859
(
223.266
223.276
223.283
223.289
223.293
223.299
223.301
223.307
223.309
223.314
223.315
223.319
223.323
223.325
223.324
223.322
223.315
223.306
223.299
223.292
223.289
223.287
223.286
223.285
223.283
223.28
223.278
223.276
223.274
223.272
223.269
223.267
223.267
223.267
223.267
223.267
223.266
223.264
223.264
223.263
223.263
223.262
223.26
223.258
223.255
223.251
223.245
223.238
223.229
223.219
223.207
223.194
223.178
223.158
223.137
223.122
223.116
223.097
223.155
223.159
223.211
223.232
223.236
223.237
223.242
223.25
223.262
223.27
223.275
223.265
223.276
223.282
223.289
223.293
223.299
223.301
223.308
223.31
223.315
223.316
223.32
223.323
223.326
223.325
223.322
223.316
223.307
223.299
223.292
223.289
223.287
223.287
223.285
223.283
223.281
223.278
223.276
223.275
223.272
223.27
223.268
223.268
223.268
223.268
223.268
223.267
223.266
223.265
223.265
223.265
223.264
223.262
223.26
223.256
223.252
223.247
223.24
223.231
223.221
223.209
223.196
223.179
223.16
223.141
223.129
223.127
223.11
223.16
223.157
223.204
223.222
223.226
223.227
223.233
223.241
223.254
223.263
223.267
223.265
223.271
223.27
223.27
223.274
223.278
223.293
223.338
223.416
223.537
223.697
223.884
224.082
224.28
224.466
224.633
224.782
224.917
225.044
225.168
225.293
225.419
225.544
225.666
225.788
225.908
226.03
226.15
226.266
226.378
226.489
226.6
226.715
226.84
226.974
227.12
227.268
227.416
227.584
227.768
227.985
228.217
228.361
223.264
223.275
223.282
223.289
223.293
223.299
223.302
223.309
223.311
223.316
223.317
223.321
223.324
223.327
223.326
223.323
223.317
223.307
223.299
223.293
223.289
223.287
223.287
223.286
223.284
223.281
223.279
223.277
223.275
223.273
223.271
223.269
223.269
223.269
223.27
223.269
223.268
223.267
223.267
223.266
223.266
223.265
223.264
223.261
223.258
223.255
223.249
223.242
223.233
223.223
223.211
223.197
223.181
223.162
223.145
223.136
223.137
223.123
223.162
223.157
223.198
223.213
223.217
223.219
223.226
223.233
223.247
223.256
223.261
223.259
223.265
223.265
223.265
223.269
223.272
223.275
223.277
223.28
223.28
223.277
223.274
223.273
223.275
223.287
223.328
223.4
223.513
223.664
223.842
224.034
224.226
224.408
224.574
224.721
224.855
224.981
225.104
225.228
225.352
225.475
225.596
225.716
225.835
225.955
226.073
226.188
226.298
226.407
226.516
226.631
226.754
226.887
227.029
227.172
227.313
227.473
227.652
227.863
228.094
228.223
223.263
223.274
223.282
223.289
223.293
223.3
223.303
223.309
223.312
223.317
223.318
223.322
223.325
223.328
223.327
223.324
223.318
223.308
223.3
223.293
223.29
223.288
223.287
223.286
223.284
223.282
223.279
223.278
223.276
223.274
223.272
223.27
223.27
223.27
223.271
223.271
223.27
223.269
223.268
223.268
223.268
223.267
223.266
223.263
223.26
223.257
223.252
223.244
223.236
223.225
223.213
223.199
223.182
223.164
223.149
223.143
223.145
223.137
223.162
223.158
223.192
223.206
223.21
223.212
223.22
223.227
223.241
223.251
223.256
223.254
223.261
223.261
223.261
223.265
223.269
223.271
223.273
223.276
223.277
223.274
223.272
223.271
223.272
223.283
223.32
223.386
223.49
223.632
223.801
223.985
224.172
224.35
224.513
224.659
224.792
224.917
225.039
225.161
225.283
225.405
225.524
225.642
225.76
225.879
225.995
226.107
226.216
226.324
226.432
226.546
226.668
226.799
226.938
227.075
227.209
227.361
227.533
227.735
227.964
228.084
223.263
223.274
223.281
223.289
223.294
223.3
223.303
223.31
223.312
223.318
223.319
223.323
223.326
223.329
223.328
223.325
223.319
223.309
223.3
223.293
223.29
223.288
223.287
223.286
223.285
223.282
223.28
223.278
223.277
223.275
223.273
223.271
223.271
223.272
223.272
223.272
223.271
223.27
223.27
223.27
223.27
223.269
223.268
223.265
223.263
223.259
223.254
223.247
223.238
223.228
223.215
223.2
223.183
223.167
223.155
223.151
223.152
223.152
223.161
223.16
223.188
223.2
223.204
223.207
223.216
223.222
223.237
223.246
223.252
223.25
223.258
223.258
223.259
223.262
223.266
223.268
223.271
223.274
223.274
223.273
223.27
223.269
223.27
223.28
223.313
223.373
223.468
223.6
223.76
223.936
224.117
224.291
224.451
224.596
224.728
224.852
224.973
225.093
225.214
225.334
225.451
225.567
225.683
225.8
225.914
226.025
226.132
226.239
226.347
226.462
226.582
226.71
226.845
226.976
227.104
227.249
227.413
227.604
227.825
227.941
227.731
223.262
223.273
223.281
223.289
223.294
223.301
223.304
223.311
223.313
223.319
223.32
223.324
223.327
223.33
223.329
223.326
223.319
223.309
223.301
223.294
223.29
223.288
223.288
223.287
223.285
223.283
223.281
223.279
223.278
223.276
223.274
223.272
223.272
223.273
223.274
223.274
223.273
223.272
223.272
223.272
223.272
223.271
223.27
223.268
223.265
223.261
223.257
223.25
223.241
223.23
223.217
223.201
223.185
223.17
223.162
223.159
223.157
223.168
223.158
223.163
223.185
223.196
223.2
223.203
223.213
223.218
223.233
223.243
223.249
223.248
223.256
223.256
223.258
223.261
223.265
223.267
223.269
223.272
223.273
223.272
223.27
223.269
223.27
223.278
223.308
223.361
223.448
223.57
223.72
223.888
224.062
224.231
224.389
224.531
224.663
224.786
224.906
225.025
225.143
225.261
225.376
225.49
225.603
225.718
225.831
225.94
226.047
226.154
226.262
226.376
226.495
226.619
226.75
226.876
226.999
227.135
227.292
227.47
227.679
227.792
227.542
223.261
223.273
223.281
223.288
223.294
223.301
223.304
223.312
223.314
223.32
223.321
223.325
223.329
223.331
223.33
223.327
223.32
223.31
223.302
223.294
223.291
223.289
223.288
223.287
223.285
223.283
223.281
223.28
223.278
223.277
223.275
223.274
223.273
223.274
223.275
223.275
223.275
223.274
223.273
223.274
223.274
223.273
223.272
223.27
223.267
223.264
223.259
223.253
223.244
223.232
223.219
223.202
223.186
223.174
223.169
223.167
223.161
223.184
223.154
223.167
223.184
223.194
223.198
223.2
223.211
223.215
223.231
223.241
223.247
223.247
223.255
223.256
223.257
223.261
223.264
223.266
223.269
223.272
223.273
223.272
223.27
223.269
223.27
223.278
223.304
223.352
223.43
223.542
223.681
223.84
224.006
224.171
224.325
224.466
224.596
224.718
224.837
224.954
225.071
225.186
225.299
225.411
225.522
225.635
225.746
225.854
225.961
226.068
226.175
226.289
226.406
226.527
226.653
226.775
226.892
227.021
227.171
227.335
227.527
227.638
227.351
223.259
223.272
223.28
223.288
223.294
223.302
223.305
223.313
223.315
223.321
223.323
223.326
223.33
223.332
223.331
223.328
223.321
223.311
223.302
223.295
223.291
223.289
223.289
223.288
223.286
223.284
223.282
223.281
223.279
223.278
223.276
223.275
223.275
223.276
223.277
223.277
223.276
223.276
223.275
223.276
223.276
223.275
223.274
223.272
223.27
223.267
223.262
223.256
223.246
223.235
223.22
223.204
223.189
223.18
223.177
223.176
223.165
223.199
223.149
223.171
223.184
223.193
223.196
223.199
223.21
223.214
223.229
223.239
223.245
223.247
223.255
223.255
223.257
223.26
223.264
223.266
223.269
223.272
223.273
223.273
223.271
223.269
223.27
223.278
223.301
223.344
223.413
223.515
223.644
223.793
223.951
224.11
224.26
224.398
224.528
224.649
224.766
224.882
224.996
225.11
225.22
225.329
225.438
225.549
225.658
225.766
225.873
225.979
226.087
226.2
226.314
226.431
226.553
226.671
226.784
226.907
227.049
227.2
227.372
227.476
227.153
223.258
223.271
223.28
223.288
223.294
223.302
223.306
223.314
223.317
223.322
223.324
223.327
223.331
223.333
223.333
223.329
223.322
223.312
223.303
223.295
223.291
223.289
223.289
223.288
223.287
223.284
223.283
223.281
223.28
223.279
223.277
223.276
223.276
223.277
223.278
223.279
223.278
223.278
223.277
223.278
223.278
223.278
223.277
223.275
223.273
223.27
223.265
223.259
223.249
223.237
223.221
223.205
223.192
223.186
223.185
223.186
223.17
223.212
223.146
223.174
223.184
223.193
223.196
223.198
223.209
223.213
223.229
223.238
223.244
223.247
223.255
223.256
223.258
223.261
223.265
223.267
223.27
223.273
223.275
223.275
223.273
223.271
223.272
223.278
223.299
223.337
223.399
223.49
223.608
223.747
223.897
224.049
224.195
224.33
224.457
224.578
224.693
224.808
224.92
225.031
225.139
225.246
225.353
225.461
225.569
225.676
225.783
225.889
225.996
226.109
226.219
226.333
226.451
226.564
226.675
226.791
226.927
227.064
227.213
227.309
226.949
223.257
223.27
223.279
223.288
223.294
223.302
223.306
223.315
223.318
223.324
223.325
223.329
223.332
223.335
223.334
223.33
223.324
223.313
223.304
223.296
223.292
223.29
223.289
223.289
223.287
223.285
223.284
223.282
223.281
223.28
223.278
223.278
223.278
223.279
223.28
223.281
223.28
223.28
223.28
223.28
223.28
223.28
223.279
223.278
223.275
223.273
223.268
223.262
223.252
223.239
223.223
223.207
223.196
223.193
223.195
223.196
223.176
223.223
223.144
223.178
223.185
223.193
223.196
223.197
223.208
223.212
223.228
223.238
223.244
223.248
223.255
223.257
223.259
223.262
223.266
223.269
223.272
223.275
223.278
223.278
223.277
223.276
223.276
223.281
223.298
223.332
223.386
223.468
223.574
223.702
223.843
223.987
224.128
224.26
224.385
224.504
224.618
224.731
224.842
224.951
225.056
225.16
225.265
225.371
225.478
225.584
225.691
225.797
225.903
226.014
226.122
226.231
226.345
226.455
226.563
226.674
226.803
226.926
227.053
227.135
226.739
223.256
223.269
223.278
223.288
223.294
223.303
223.307
223.316
223.319
223.325
223.327
223.33
223.334
223.336
223.335
223.332
223.325
223.314
223.304
223.296
223.292
223.29
223.29
223.289
223.288
223.286
223.284
223.283
223.282
223.281
223.28
223.279
223.279
223.281
223.282
223.283
223.282
223.282
223.282
223.282
223.283
223.283
223.282
223.28
223.279
223.276
223.272
223.265
223.254
223.24
223.224
223.209
223.201
223.2
223.204
223.206
223.184
223.23
223.145
223.182
223.187
223.194
223.197
223.198
223.208
223.213
223.229
223.238
223.244
223.25
223.257
223.259
223.262
223.266
223.269
223.273
223.276
223.28
223.282
223.284
223.283
223.282
223.281
223.285
223.299
223.329
223.376
223.448
223.543
223.66
223.791
223.927
224.061
224.189
224.312
224.428
224.541
224.652
224.761
224.867
224.97
225.072
225.175
225.28
225.385
225.49
225.597
225.702
225.808
225.916
226.02
226.125
226.235
226.344
226.449
226.555
226.677
226.786
226.892
226.956
226.525
223.254
223.268
223.278
223.287
223.294
223.303
223.308
223.317
223.32
223.326
223.328
223.332
223.335
223.338
223.337
223.333
223.326
223.315
223.305
223.297
223.293
223.291
223.29
223.29
223.288
223.287
223.285
223.284
223.283
223.282
223.281
223.281
223.281
223.282
223.284
223.285
223.285
223.284
223.284
223.285
223.286
223.285
223.285
223.283
223.282
223.279
223.275
223.268
223.257
223.242
223.226
223.213
223.207
223.209
223.215
223.217
223.194
223.233
223.147
223.187
223.19
223.197
223.199
223.199
223.207
223.214
223.23
223.238
223.245
223.252
223.259
223.263
223.266
223.27
223.274
223.278
223.282
223.286
223.289
223.291
223.291
223.289
223.288
223.291
223.301
223.327
223.367
223.43
223.514
223.62
223.74
223.867
223.995
224.117
224.236
224.35
224.461
224.57
224.677
224.781
224.882
224.982
225.082
225.186
225.29
225.395
225.5
225.604
225.708
225.814
225.915
226.016
226.123
226.229
226.332
226.433
226.547
226.644
226.729
226.771
226.308
223.253
223.267
223.277
223.287
223.294
223.303
223.308
223.318
223.321
223.328
223.329
223.333
223.337
223.339
223.339
223.335
223.327
223.316
223.306
223.298
223.293
223.291
223.291
223.29
223.289
223.287
223.286
223.285
223.285
223.284
223.283
223.282
223.283
223.284
223.286
223.287
223.287
223.286
223.287
223.288
223.288
223.288
223.288
223.287
223.285
223.283
223.279
223.271
223.259
223.244
223.229
223.218
223.214
223.218
223.226
223.226
223.207
223.234
223.153
223.193
223.193
223.2
223.202
223.201
223.207
223.215
223.231
223.239
223.247
223.256
223.263
223.268
223.272
223.276
223.281
223.284
223.288
223.293
223.297
223.299
223.3
223.298
223.297
223.298
223.305
223.326
223.361
223.415
223.489
223.583
223.692
223.809
223.929
224.045
224.16
224.271
224.378
224.486
224.59
224.692
224.791
224.888
224.988
225.089
225.193
225.297
225.401
225.503
225.605
225.707
225.805
225.903
226.006
226.11
226.211
226.307
226.412
226.5
226.567
226.579
226.091
223.251
223.266
223.276
223.286
223.294
223.304
223.309
223.319
223.323
223.329
223.331
223.335
223.338
223.341
223.34
223.336
223.329
223.317
223.307
223.298
223.294
223.292
223.292
223.291
223.29
223.288
223.287
223.286
223.286
223.285
223.284
223.284
223.285
223.286
223.288
223.289
223.289
223.289
223.289
223.29
223.291
223.291
223.291
223.29
223.289
223.286
223.282
223.274
223.262
223.247
223.232
223.223
223.221
223.227
223.237
223.235
223.224
223.235
223.161
223.199
223.199
223.205
223.206
223.204
223.207
223.219
223.234
223.241
223.251
223.26
223.268
223.274
223.279
223.283
223.288
223.292
223.296
223.301
223.305
223.308
223.309
223.308
223.306
223.306
223.31
223.327
223.357
223.403
223.467
223.549
223.647
223.754
223.864
223.974
224.083
224.19
224.294
224.398
224.5
224.6
224.697
224.792
224.89
224.99
225.093
225.195
225.298
225.398
225.497
225.596
225.691
225.786
225.886
225.987
226.086
226.177
226.272
226.351
226.405
226.379
225.871
223.249
223.264
223.275
223.286
223.293
223.304
223.309
223.32
223.324
223.33
223.332
223.336
223.34
223.343
223.342
223.338
223.33
223.318
223.308
223.299
223.295
223.293
223.292
223.292
223.291
223.289
223.288
223.288
223.287
223.287
223.286
223.286
223.287
223.289
223.291
223.292
223.292
223.292
223.292
223.293
223.294
223.294
223.294
223.293
223.292
223.29
223.286
223.277
223.264
223.249
223.237
223.23
223.229
223.238
223.248
223.243
223.244
223.234
223.171
223.207
223.205
223.211
223.211
223.209
223.208
223.223
223.237
223.244
223.255
223.265
223.274
223.281
223.286
223.291
223.296
223.3
223.304
223.309
223.314
223.317
223.319
223.318
223.316
223.315
223.317
223.329
223.354
223.394
223.448
223.519
223.606
223.701
223.802
223.904
224.007
224.108
224.209
224.309
224.408
224.505
224.599
224.693
224.789
224.888
224.989
225.09
225.19
225.288
225.385
225.48
225.573
225.665
225.762
225.859
225.956
226.042
226.126
226.194
226.24
226.173
225.648
223.247
223.263
223.274
223.285
223.293
223.304
223.31
223.321
223.325
223.332
223.334
223.338
223.342
223.345
223.344
223.34
223.332
223.32
223.309
223.3
223.295
223.293
223.293
223.293
223.292
223.29
223.29
223.289
223.289
223.288
223.288
223.288
223.289
223.291
223.293
223.294
223.294
223.294
223.295
223.296
223.297
223.298
223.298
223.297
223.296
223.294
223.289
223.28
223.267
223.253
223.242
223.238
223.239
223.249
223.259
223.251
223.265
223.233
223.184
223.215
223.213
223.217
223.216
223.214
223.21
223.228
223.242
223.248
223.26
223.27
223.28
223.288
223.294
223.299
223.304
223.308
223.313
223.318
223.323
223.326
223.328
223.328
223.326
223.324
223.325
223.333
223.354
223.387
223.433
223.493
223.568
223.653
223.744
223.837
223.933
224.027
224.123
224.219
224.314
224.407
224.499
224.591
224.685
224.782
224.881
224.98
225.077
225.172
225.266
225.359
225.449
225.539
225.633
225.726
225.819
225.901
225.974
226.031
226.065
225.963
225.421
223.245
223.261
223.272
223.284
223.293
223.304
223.31
223.322
223.326
223.333
223.336
223.34
223.344
223.347
223.346
223.341
223.334
223.321
223.311
223.301
223.296
223.294
223.294
223.293
223.293
223.292
223.291
223.29
223.29
223.29
223.289
223.29
223.291
223.293
223.295
223.297
223.297
223.297
223.298
223.3
223.301
223.302
223.301
223.301
223.3
223.298
223.293
223.283
223.27
223.257
223.249
223.246
223.249
223.261
223.27
223.26
223.286
223.232
223.2
223.224
223.222
223.224
223.221
223.22
223.212
223.235
223.246
223.252
223.266
223.276
223.286
223.295
223.301
223.307
223.312
223.317
223.321
223.326
223.331
223.335
223.337
223.338
223.336
223.334
223.334
223.34
223.355
223.384
223.421
223.472
223.536
223.61
223.69
223.774
223.861
223.949
224.038
224.129
224.219
224.309
224.397
224.486
224.577
224.672
224.768
224.864
224.959
225.051
225.142
225.232
225.319
225.407
225.497
225.586
225.675
225.752
225.818
225.861
225.88
225.748
225.19
223.242
223.259
223.271
223.283
223.292
223.304
223.311
223.323
223.327
223.335
223.337
223.341
223.346
223.349
223.348
223.343
223.336
223.323
223.312
223.302
223.297
223.295
223.295
223.294
223.294
223.293
223.292
223.292
223.292
223.292
223.291
223.292
223.293
223.296
223.298
223.3
223.3
223.3
223.301
223.303
223.305
223.305
223.305
223.305
223.304
223.302
223.297
223.286
223.274
223.262
223.256
223.255
223.26
223.273
223.282
223.27
223.307
223.235
223.216
223.235
223.231
223.229
223.225
223.227
223.215
223.241
223.251
223.257
223.271
223.282
223.293
223.302
223.308
223.314
223.32
223.324
223.329
223.334
223.339
223.343
223.346
223.347
223.346
223.345
223.344
223.347
223.359
223.382
223.413
223.455
223.509
223.572
223.641
223.716
223.794
223.874
223.956
224.04
224.125
224.21
224.294
224.379
224.467
224.558
224.651
224.743
224.834
224.923
225.012
225.098
225.183
225.268
225.355
225.439
225.523
225.595
225.655
225.686
225.683
225.525
224.951
223.24
223.257
223.269
223.282
223.291
223.304
223.311
223.323
223.329
223.336
223.339
223.343
223.348
223.351
223.35
223.346
223.338
223.325
223.314
223.304
223.298
223.296
223.296
223.295
223.295
223.294
223.294
223.294
223.294
223.294
223.294
223.294
223.296
223.298
223.301
223.303
223.303
223.304
223.305
223.307
223.308
223.309
223.31
223.31
223.309
223.306
223.3
223.29
223.278
223.268
223.264
223.265
223.272
223.286
223.294
223.282
223.323
223.241
223.234
223.247
223.241
223.235
223.228
223.233
223.218
223.248
223.256
223.262
223.277
223.289
223.299
223.308
223.316
223.322
223.327
223.332
223.336
223.341
223.346
223.351
223.355
223.356
223.356
223.355
223.354
223.356
223.364
223.382
223.409
223.443
223.487
223.54
223.599
223.664
223.732
223.804
223.878
223.955
224.034
224.113
224.192
224.272
224.355
224.442
224.53
224.618
224.705
224.79
224.875
224.958
225.041
225.122
225.205
225.284
225.362
225.428
225.481
225.506
225.475
225.294
224.704
223.237
223.255
223.267
223.28
223.291
223.304
223.312
223.324
223.33
223.338
223.341
223.345
223.35
223.353
223.353
223.348
223.34
223.327
223.315
223.305
223.3
223.297
223.297
223.297
223.296
223.295
223.295
223.295
223.296
223.296
223.296
223.297
223.298
223.301
223.304
223.306
223.307
223.307
223.309
223.31
223.312
223.314
223.314
223.314
223.313
223.31
223.304
223.293
223.282
223.275
223.273
223.275
223.284
223.298
223.307
223.294
223.336
223.25
223.252
223.26
223.251
223.24
223.23
223.239
223.222
223.255
223.261
223.268
223.283
223.295
223.306
223.315
223.323
223.329
223.334
223.339
223.344
223.349
223.354
223.359
223.363
223.365
223.366
223.366
223.365
223.366
223.372
223.384
223.407
223.435
223.471
223.514
223.564
223.619
223.678
223.741
223.807
223.877
223.948
224.02
224.093
224.167
224.244
224.325
224.408
224.49
224.572
224.653
224.734
224.813
224.891
224.969
225.047
225.121
225.192
225.252
225.296
225.315
225.26
225.053
224.446
223.234
223.252
223.265
223.279
223.29
223.304
223.312
223.325
223.331
223.339
223.342
223.347
223.352
223.355
223.355
223.35
223.342
223.329
223.317
223.307
223.301
223.298
223.298
223.298
223.298
223.297
223.297
223.297
223.298
223.298
223.298
223.299
223.301
223.304
223.307
223.309
223.31
223.311
223.312
223.315
223.317
223.318
223.319
223.319
223.318
223.315
223.308
223.298
223.288
223.283
223.281
223.286
223.297
223.312
223.321
223.308
223.348
223.262
223.271
223.274
223.261
223.244
223.233
223.244
223.226
223.262
223.266
223.274
223.29
223.301
223.312
223.322
223.33
223.336
223.342
223.347
223.352
223.356
223.362
223.367
223.371
223.375
223.376
223.377
223.377
223.377
223.381
223.389
223.407
223.431
223.46
223.495
223.536
223.582
223.632
223.686
223.744
223.805
223.869
223.934
224
224.067
224.137
224.211
224.287
224.362
224.438
224.514
224.589
224.663
224.736
224.808
224.881
224.949
225.013
225.066
225.099
225.111
225.036
224.804
224.177
223.23
223.249
223.263
223.277
223.288
223.303
223.312
223.326
223.332
223.34
223.344
223.349
223.354
223.358
223.358
223.353
223.345
223.331
223.319
223.308
223.302
223.3
223.299
223.299
223.299
223.299
223.299
223.299
223.3
223.3
223.301
223.302
223.304
223.307
223.31
223.312
223.314
223.315
223.316
223.319
223.321
223.323
223.323
223.323
223.322
223.319
223.312
223.302
223.294
223.291
223.291
223.297
223.31
223.327
223.336
223.323
223.359
223.277
223.289
223.288
223.27
223.249
223.235
223.249
223.231
223.267
223.271
223.281
223.296
223.308
223.319
223.329
223.337
223.344
223.349
223.354
223.359
223.364
223.37
223.375
223.38
223.384
223.386
223.388
223.389
223.389
223.392
223.397
223.409
223.429
223.454
223.482
223.516
223.553
223.595
223.641
223.69
223.744
223.799
223.856
223.915
223.975
224.037
224.103
224.171
224.239
224.307
224.376
224.444
224.512
224.579
224.644
224.71
224.77
224.827
224.871
224.893
224.893
224.801
224.545
223.898
223.227
223.246
223.26
223.275
223.287
223.303
223.312
223.326
223.333
223.342
223.346
223.351
223.356
223.36
223.361
223.356
223.348
223.334
223.321
223.31
223.304
223.301
223.301
223.301
223.301
223.301
223.301
223.301
223.302
223.303
223.304
223.305
223.307
223.311
223.314
223.316
223.318
223.319
223.321
223.323
223.326
223.327
223.328
223.328
223.327
223.323
223.316
223.307
223.301
223.299
223.3
223.309
223.324
223.341
223.353
223.34
223.369
223.293
223.307
223.302
223.279
223.253
223.239
223.252
223.238
223.271
223.276
223.288
223.303
223.315
223.326
223.336
223.344
223.351
223.357
223.362
223.367
223.373
223.378
223.384
223.389
223.393
223.397
223.399
223.401
223.402
223.404
223.406
223.414
223.43
223.451
223.475
223.502
223.533
223.567
223.606
223.647
223.693
223.74
223.79
223.841
223.893
223.948
224.005
224.064
224.124
224.184
224.244
224.304
224.364
224.422
224.479
224.536
224.588
224.635
224.67
224.681
224.664
224.555
224.275
223.611
223.222
223.243
223.257
223.273
223.285
223.302
223.312
223.327
223.334
223.343
223.347
223.353
223.359
223.363
223.364
223.359
223.351
223.337
223.324
223.312
223.306
223.303
223.303
223.303
223.303
223.303
223.303
223.304
223.305
223.306
223.307
223.308
223.311
223.314
223.318
223.32
223.322
223.323
223.325
223.328
223.331
223.332
223.333
223.333
223.332
223.327
223.32
223.313
223.309
223.308
223.311
223.322
223.339
223.356
223.368
223.359
223.38
223.31
223.324
223.315
223.285
223.258
223.245
223.255
223.244
223.275
223.282
223.296
223.31
223.322
223.334
223.344
223.352
223.359
223.365
223.371
223.376
223.381
223.387
223.393
223.398
223.403
223.407
223.41
223.413
223.416
223.417
223.419
223.424
223.434
223.45
223.472
223.495
223.52
223.549
223.58
223.615
223.653
223.694
223.736
223.78
223.825
223.872
223.921
223.972
224.023
224.075
224.125
224.174
224.224
224.274
224.321
224.368
224.41
224.445
224.471
224.467
224.433
224.303
223.998
223.317
223.218
223.239
223.253
223.27
223.284
223.301
223.312
223.327
223.335
223.344
223.349
223.355
223.361
223.365
223.367
223.362
223.354
223.34
223.327
223.315
223.308
223.305
223.304
223.305
223.305
223.305
223.305
223.306
223.308
223.309
223.31
223.311
223.314
223.318
223.322
223.324
223.326
223.328
223.33
223.333
223.336
223.338
223.338
223.339
223.336
223.332
223.325
223.319
223.316
223.317
223.322
223.336
223.354
223.371
223.383
223.38
223.393
223.329
223.341
223.324
223.29
223.262
223.254
223.258
223.251
223.278
223.288
223.302
223.318
223.33
223.342
223.352
223.361
223.368
223.374
223.38
223.385
223.391
223.397
223.403
223.408
223.413
223.418
223.422
223.426
223.429
223.431
223.433
223.435
223.441
223.453
223.471
223.492
223.514
223.538
223.564
223.594
223.625
223.659
223.695
223.732
223.77
223.811
223.853
223.896
223.939
223.981
224.022
224.061
224.1
224.139
224.176
224.213
224.244
224.265
224.281
224.256
224.205
224.048
223.715
223.015
223.213
223.235
223.25
223.267
223.281
223.3
223.311
223.327
223.335
223.345
223.35
223.357
223.363
223.368
223.37
223.365
223.357
223.343
223.33
223.318
223.311
223.307
223.306
223.307
223.307
223.307
223.308
223.309
223.311
223.312
223.313
223.315
223.318
223.322
223.326
223.329
223.331
223.332
223.335
223.338
223.341
223.343
223.344
223.344
223.341
223.336
223.33
223.326
223.325
223.326
223.334
223.351
223.373
223.389
223.396
223.4
223.409
223.351
223.355
223.331
223.293
223.267
223.261
223.267
223.257
223.283
223.296
223.31
223.326
223.339
223.351
223.361
223.37
223.377
223.383
223.389
223.395
223.401
223.407
223.413
223.419
223.424
223.429
223.434
223.439
223.443
223.446
223.448
223.45
223.454
223.461
223.474
223.491
223.511
223.533
223.556
223.581
223.608
223.637
223.667
223.698
223.73
223.766
223.802
223.839
223.874
223.908
223.939
223.968
223.996
224.023
224.051
224.077
224.095
224.103
224.108
224.061
223.99
223.8
223.437
222.714
223.207
223.23
223.245
223.264
223.279
223.298
223.31
223.327
223.336
223.346
223.352
223.358
223.366
223.37
223.373
223.369
223.36
223.347
223.333
223.321
223.313
223.309
223.309
223.309
223.31
223.31
223.311
223.312
223.314
223.315
223.317
223.319
223.322
223.326
223.33
223.333
223.335
223.338
223.34
223.344
223.347
223.349
223.349
223.349
223.346
223.342
223.336
223.333
223.333
223.336
223.346
223.367
223.394
223.412
223.409
223.423
223.427
223.373
223.367
223.334
223.294
223.273
223.273
223.274
223.264
223.288
223.302
223.319
223.335
223.348
223.36
223.37
223.379
223.387
223.393
223.399
223.405
223.411
223.418
223.424
223.43
223.436
223.441
223.447
223.452
223.457
223.461
223.464
223.466
223.469
223.474
223.483
223.498
223.514
223.531
223.553
223.576
223.599
223.624
223.649
223.676
223.704
223.735
223.767
223.798
223.828
223.854
223.878
223.898
223.916
223.933
223.952
223.966
223.973
223.969
223.954
223.888
223.794
223.57
223.17
222.418
223.201
223.224
223.241
223.26
223.276
223.296
223.309
223.326
223.336
223.346
223.353
223.36
223.368
223.373
223.377
223.373
223.364
223.35
223.337
223.324
223.316
223.312
223.311
223.312
223.312
223.313
223.314
223.316
223.317
223.319
223.321
223.323
223.326
223.33
223.335
223.338
223.341
223.343
223.346
223.349
223.353
223.354
223.355
223.355
223.351
223.347
223.343
223.341
223.342
223.346
223.36
223.385
223.415
223.434
223.426
223.448
223.447
223.395
223.377
223.336
223.296
223.278
223.286
223.279
223.272
223.294
223.311
223.328
223.345
223.358
223.37
223.38
223.389
223.397
223.404
223.41
223.416
223.422
223.429
223.436
223.442
223.448
223.454
223.46
223.465
223.471
223.476
223.481
223.484
223.487
223.491
223.497
223.506
223.519
223.536
223.554
223.574
223.597
223.618
223.641
223.664
223.689
223.717
223.745
223.773
223.798
223.82
223.838
223.852
223.861
223.87
223.878
223.881
223.877
223.861
223.827
223.744
223.624
223.362
222.929
222.145
223.195
223.219
223.236
223.256
223.273
223.294
223.307
223.325
223.335
223.347
223.354
223.362
223.37
223.376
223.38
223.376
223.368
223.354
223.34
223.328
223.32
223.315
223.314
223.315
223.316
223.316
223.318
223.319
223.321
223.323
223.325
223.327
223.331
223.335
223.34
223.343
223.346
223.349
223.352
223.356
223.359
223.361
223.361
223.36
223.357
223.353
223.35
223.349
223.351
223.358
223.375
223.404
223.437
223.456
223.452
223.477
223.47
223.416
223.385
223.338
223.299
223.286
223.297
223.285
223.28
223.301
223.32
223.338
223.355
223.368
223.38
223.391
223.4
223.408
223.415
223.421
223.427
223.434
223.441
223.448
223.455
223.461
223.467
223.473
223.479
223.486
223.492
223.498
223.503
223.507
223.511
223.516
223.523
223.532
223.544
223.559
223.577
223.597
223.618
223.639
223.661
223.683
223.708
223.733
223.758
223.781
223.8
223.814
223.824
223.828
223.83
223.83
223.823
223.808
223.78
223.729
223.627
223.477
223.188
222.726
221.905
223.187
223.212
223.23
223.251
223.269
223.291
223.305
223.324
223.335
223.347
223.355
223.363
223.372
223.378
223.383
223.38
223.372
223.359
223.345
223.332
223.324
223.319
223.318
223.318
223.319
223.32
223.321
223.323
223.325
223.327
223.329
223.332
223.336
223.34
223.345
223.349
223.352
223.355
223.358
223.362
223.365
223.367
223.367
223.366
223.363
223.36
223.359
223.358
223.361
223.37
223.392
223.425
223.459
223.479
223.484
223.508
223.492
223.434
223.391
223.34
223.305
223.296
223.304
223.294
223.291
223.311
223.331
223.35
223.366
223.379
223.391
223.402
223.411
223.419
223.426
223.433
223.44
223.447
223.454
223.461
223.468
223.475
223.481
223.488
223.494
223.501
223.509
223.515
223.522
223.528
223.533
223.538
223.544
223.552
223.561
223.573
223.586
223.602
223.62
223.64
223.661
223.682
223.705
223.729
223.752
223.773
223.791
223.804
223.811
223.813
223.81
223.803
223.786
223.76
223.72
223.651
223.532
223.359
223.051
222.562
221.713
223.179
223.205
223.223
223.246
223.264
223.287
223.303
223.322
223.334
223.347
223.356
223.364
223.374
223.381
223.386
223.384
223.376
223.363
223.349
223.336
223.328
223.323
223.322
223.322
223.323
223.324
223.326
223.328
223.33
223.332
223.334
223.337
223.341
223.346
223.351
223.355
223.358
223.361
223.365
223.369
223.372
223.374
223.374
223.373
223.37
223.368
223.367
223.368
223.372
223.384
223.411
223.447
223.484
223.507
223.521
223.539
223.508
223.447
223.393
223.343
223.312
223.306
223.309
223.302
223.302
223.323
223.343
223.362
223.378
223.391
223.403
223.414
223.423
223.431
223.438
223.445
223.452
223.46
223.467
223.475
223.482
223.489
223.496
223.503
223.51
223.518
223.526
223.534
223.541
223.549
223.556
223.562
223.569
223.576
223.584
223.593
223.604
223.618
223.633
223.648
223.665
223.685
223.706
223.727
223.749
223.77
223.788
223.8
223.806
223.808
223.802
223.791
223.765
223.729
223.678
223.591
223.461
223.268
222.94
222.431
221.567