/*--------------------------------*- C++ -*----------------------------------*\
| =========                 |                                                 |
| \\      /  F ield         | OpenFOAM: The Open Source CFD Toolbox           |
|  \\    /   O peration     | Version:  2412                                  |
|   \\  /    A nd           | Website:  www.openfoam.com                      |
|    \\/     M anipulation  |                                                 |
\*---------------------------------------------------------------------------*/
FoamFile
{
    version     2.0;
    format      ascii;
    arch        "LSB;label=32;scalar=64";
    class       volScalarField;
    location    "0.034";
    object      rho;
}
// * * * * * * * * * * * * * * * * * * * * * * * * * * * * * * * * * * * * * //

dimensions      [1 -3 0 0 0 0 0];

internalField   nonuniform List<scalar> 
9763
(
0.0420262
0.0426376
0.0420157
0.0425806
0.0420205
0.0425516
0.0420304
0.0425299
0.0420373
0.0425321
0.0420414
0.0425344
0.0420491
0.0425383
0.0420658
0.0425404
0.042085
0.0425396
0.0420964
0.0425353
0.0421027
0.0425279
0.0421089
0.0425169
0.0421134
0.0425039
0.0421158
0.0424883
0.0421171
0.0424716
0.0421182
0.0424532
0.0421189
0.0424343
0.0421195
0.0424142
0.0421201
0.042394
0.0421208
0.0423729
0.0421215
0.0423521
0.0421223
0.0423305
0.042123
0.0423091
0.0421235
0.042287
0.0421237
0.0422645
0.0421233
0.0422411
0.0421223
0.0422167
0.0421205
0.042191
0.0421183
0.042164
0.0421157
0.0421353
0.0421137
0.0421053
0.0421125
0.042074
0.0421118
0.0420422
0.0421107
0.0420103
0.0421092
0.0419783
0.0421068
0.0419463
0.0421034
0.0419142
0.0420978
0.0418823
0.0420893
0.0418507
0.0420776
0.0418195
0.0417881
0.0417562
0.0417233
0.0536568
0.0445128
0.0441155
0.0438418
0.0436235
0.043515
0.0434582
0.0434215
0.0433869
0.0433307
0.0432525
0.0431633
0.0430709
0.0429757
0.042876
0.0427669
0.0426454
0.0425073
0.0423497
0.0421733
0.0419786
0.0417701
0.0415532
0.0413354
0.0411279
0.0409455
0.0407912
0.0406617
0.0405543
0.0404654
0.0403912
0.0403274
0.0402713
0.0402217
0.0401792
0.0401437
0.0401147
0.0400916
0.0400727
0.0400579
0.040047
0.0400412
0.0400418
0.0400505
0.0400676
0.0400907
0.040119
0.0401524
0.0401909
0.0402341
0.0402821
0.0403334
0.0403873
0.0404392
0.0404974
0.0405405
0.0405931
0.0406352
0.040674
0.0407145
0.0407553
0.0407979
0.0408414
0.0408839
0.0409257
0.0409692
0.0410107
0.041053
0.0410956
0.0411364
0.0411767
0.0412145
0.0412506
0.0412851
0.0413193
0.0413546
0.0413909
0.0414281
0.0414685
0.0415107
0.0415542
0.0415974
0.041637
0.0416706
0.0416996
0.0417259
0.0417507
0.0417761
0.0418024
0.0418305
0.0418598
0.0418903
0.0419191
0.0419472
0.0419743
0.0420007
0.0420259
0.0420498
0.0420723
0.0420934
0.0421135
0.0421313
0.0421481
0.0421613
0.0421727
0.0421793
0.0421829
0.0421826
0.0421777
0.0421686
0.042153
0.0421329
0.0421076
0.0420787
0.0420459
0.0420119
0.0419775
0.0419434
0.0419147
0.0419156
0.0418355
0.053668
0.0445091
0.0441102
0.0438396
0.0436218
0.043513
0.0434559
0.0434191
0.0433845
0.0433286
0.0432505
0.0431613
0.0430688
0.0429736
0.0428736
0.0427642
0.0426423
0.0425035
0.0423451
0.0421677
0.041972
0.0417624
0.0415445
0.041326
0.0411183
0.0409362
0.0407821
0.0406529
0.0405454
0.0404564
0.0403816
0.0403171
0.0402598
0.0402089
0.0401647
0.0401276
0.0400969
0.040072
0.0400515
0.0400348
0.0400219
0.0400144
0.040013
0.0400193
0.0400346
0.0400564
0.0400834
0.0401157
0.040153
0.0401953
0.0402421
0.0402925
0.0403455
0.0403972
0.0404548
0.0404979
0.0405529
0.0405936
0.0406335
0.0406737
0.0407148
0.0407568
0.0408001
0.0408426
0.0408845
0.0409278
0.0409684
0.0410097
0.0410506
0.0410907
0.0411297
0.0411672
0.0412027
0.0412366
0.0412708
0.041306
0.0413419
0.0413783
0.0414173
0.041457
0.0414985
0.041539
0.0415762
0.0416085
0.0416362
0.0416612
0.0416847
0.0417081
0.0417314
0.0417547
0.0417779
0.0418023
0.0418277
0.0418541
0.0418802
0.0419053
0.041929
0.0419513
0.041972
0.0419916
0.0420098
0.0420267
0.0420426
0.0420561
0.0420682
0.0420763
0.0420817
0.0420833
0.0420798
0.0420712
0.0420556
0.0420349
0.0420103
0.0419865
0.0419655
0.0419497
0.0419394
0.0419341
0.0419322
0.0419334
0.0419323
0.0536689
0.0445076
0.0441059
0.0438382
0.04362
0.0435111
0.0434537
0.0434167
0.0433823
0.0433265
0.0432485
0.0431593
0.0430668
0.0429715
0.0428714
0.0427616
0.0426392
0.0424999
0.0423407
0.0421623
0.0419655
0.041755
0.0415362
0.0413169
0.0411092
0.0409274
0.0407736
0.0406444
0.0405369
0.0404475
0.0403723
0.0403068
0.0402483
0.0401959
0.04015
0.040111
0.0400786
0.0400518
0.0400295
0.0400109
0.039996
0.0399865
0.0399829
0.0399869
0.0400002
0.0400206
0.0400462
0.0400771
0.0401132
0.0401544
0.0402003
0.0402497
0.0403016
0.0403529
0.0404092
0.0404517
0.040507
0.0405465
0.0405862
0.0406252
0.040665
0.0407052
0.0407473
0.0407889
0.0408309
0.0408732
0.0409118
0.0409505
0.0409884
0.0410261
0.0410634
0.0410996
0.0411342
0.0411677
0.0412013
0.0412357
0.0412699
0.0413047
0.041342
0.0413794
0.0414178
0.0414541
0.0414867
0.041514
0.0415376
0.0415584
0.0415781
0.041598
0.0416191
0.0416419
0.0416662
0.0416919
0.0417179
0.0417434
0.0417675
0.0417898
0.0418101
0.0418288
0.0418458
0.0418617
0.0418764
0.0418901
0.0419028
0.0419137
0.0419234
0.0419297
0.041934
0.0419348
0.041931
0.0419229
0.0419083
0.041889
0.0418658
0.0418423
0.0418204
0.0418026
0.04179
0.0417823
0.0417784
0.0417773
0.0417816
0.0536606
0.0445063
0.0441017
0.0438366
0.0436184
0.0435092
0.0434515
0.0434144
0.0433801
0.0433246
0.0432467
0.0431575
0.0430649
0.0429696
0.0428693
0.0427592
0.0426363
0.0424963
0.0423364
0.0421571
0.0419594
0.0417479
0.0415283
0.0413084
0.0411007
0.0409193
0.0407657
0.0406366
0.0405289
0.0404393
0.0403634
0.0402971
0.0402374
0.0401835
0.040136
0.0400952
0.040061
0.0400324
0.0400082
0.0399877
0.0399709
0.0399593
0.0399538
0.0399557
0.0399667
0.0399856
0.0400099
0.0400393
0.0400742
0.0401143
0.0401593
0.0402079
0.0402588
0.0403096
0.0403648
0.040407
0.0404623
0.0405007
0.0405404
0.0405783
0.0406166
0.0406551
0.0406959
0.0407361
0.0407773
0.0408175
0.0408535
0.040889
0.0409234
0.0409584
0.0409937
0.041029
0.041063
0.0410969
0.0411306
0.0411655
0.0411992
0.041233
0.0412673
0.0413005
0.0413339
0.0413647
0.0413919
0.0414149
0.0414353
0.0414542
0.041473
0.0414926
0.0415131
0.0415345
0.0415562
0.0415779
0.0415989
0.0416188
0.0416374
0.0416544
0.04167
0.0416843
0.0416975
0.0417099
0.0417215
0.0417327
0.041743
0.0417526
0.0417609
0.0417668
0.0417709
0.0417719
0.041769
0.0417619
0.0417493
0.0417318
0.0417106
0.0416878
0.0416659
0.0416474
0.0416338
0.0416255
0.0416219
0.0416213
0.0416257
0.0536652
0.0445049
0.0440975
0.043835
0.0436167
0.0435074
0.0434494
0.0434121
0.0433779
0.0433226
0.0432449
0.0431557
0.043063
0.0429677
0.0428672
0.0427569
0.0426336
0.042493
0.0423322
0.0421521
0.0419535
0.0417411
0.0415206
0.0413002
0.0410926
0.0409115
0.0407581
0.0406291
0.0405214
0.0404314
0.040355
0.0402878
0.040227
0.0401716
0.0401224
0.0400799
0.0400439
0.0400135
0.0399875
0.0399652
0.0399464
0.0399326
0.0399254
0.0399253
0.0399337
0.0399512
0.0399741
0.0400021
0.0400356
0.0400747
0.0401188
0.0401666
0.0402168
0.0402669
0.0403211
0.0403631
0.0404182
0.0404556
0.0404953
0.0405324
0.0405694
0.0406061
0.0406454
0.0406837
0.0407235
0.0407611
0.0407949
0.0408282
0.0408607
0.0408939
0.0409273
0.0409615
0.0409946
0.0410279
0.0410608
0.0410945
0.0411265
0.0411595
0.0411923
0.0412243
0.0412553
0.0412825
0.0413054
0.0413241
0.0413403
0.0413553
0.0413707
0.0413874
0.0414058
0.0414255
0.0414457
0.0414656
0.0414843
0.0415013
0.0415162
0.0415293
0.0415406
0.0415504
0.0415592
0.0415672
0.0415747
0.0415821
0.0415889
0.0415955
0.0416008
0.0416047
0.0416071
0.0416068
0.0416031
0.0415952
0.0415823
0.0415646
0.0415433
0.0415202
0.041498
0.0414792
0.0414657
0.0414579
0.0414551
0.041455
0.04146
0.0536669
0.0445035
0.0440933
0.0438334
0.0436151
0.0435055
0.0434473
0.0434099
0.0433758
0.0433207
0.0432432
0.0431539
0.0430612
0.0429658
0.0428652
0.0427545
0.0426308
0.0424896
0.0423281
0.0421471
0.0419476
0.0417344
0.0415131
0.0412922
0.0410847
0.0409039
0.0407508
0.0406218
0.040514
0.0404238
0.0403468
0.0402788
0.0402167
0.0401599
0.0401091
0.0400649
0.040027
0.0399948
0.0399671
0.0399429
0.0399223
0.0399064
0.0398974
0.0398951
0.0399014
0.039917
0.0399387
0.0399653
0.0399974
0.0400353
0.0400786
0.0401257
0.0401751
0.0402246
0.0402779
0.0403203
0.040375
0.0404111
0.0404503
0.0404861
0.0405221
0.0405578
0.040596
0.0406323
0.0406701
0.0407049
0.040737
0.0407693
0.0408014
0.0408342
0.0408671
0.0409
0.0409313
0.040963
0.0409946
0.0410268
0.041057
0.0410882
0.0411185
0.0411481
0.041176
0.0412004
0.0412199
0.0412363
0.0412505
0.0412641
0.0412785
0.041294
0.0413107
0.0413281
0.0413454
0.0413622
0.0413774
0.041391
0.0414026
0.0414124
0.0414205
0.0414273
0.0414332
0.0414385
0.0414436
0.0414485
0.0414531
0.0414576
0.0414608
0.0414633
0.0414639
0.0414619
0.0414569
0.0414471
0.0414328
0.0414134
0.0413904
0.0413653
0.041341
0.0413202
0.0413047
0.0412955
0.0412914
0.0412901
0.0412867
0.0536651
0.0445023
0.044089
0.0438317
0.0436135
0.0435037
0.0434452
0.0434077
0.0433737
0.0433188
0.0432414
0.0431521
0.0430594
0.0429639
0.0428631
0.0427522
0.0426281
0.0424863
0.042324
0.0421421
0.0419418
0.0417276
0.0415055
0.0412841
0.0410768
0.0408963
0.0407435
0.0406147
0.0405067
0.0404161
0.0403386
0.0402698
0.0402065
0.0401483
0.0400958
0.0400498
0.0400101
0.039976
0.0399464
0.0399204
0.0398978
0.0398799
0.0398688
0.0398645
0.0398686
0.0398823
0.0399026
0.0399277
0.0399582
0.0399949
0.0400373
0.0400837
0.0401325
0.0401814
0.0402336
0.0402761
0.0403305
0.0403653
0.0404043
0.0404388
0.0404735
0.0405082
0.0405451
0.0405795
0.0406157
0.0406479
0.0406787
0.0407101
0.0407419
0.0407745
0.0408071
0.0408393
0.0408697
0.0409001
0.0409299
0.0409594
0.0409873
0.0410165
0.0410443
0.0410716
0.0410965
0.0411182
0.0411347
0.0411487
0.0411609
0.0411729
0.041186
0.0412007
0.0412168
0.0412338
0.0412504
0.041266
0.0412798
0.0412917
0.0413014
0.0413092
0.0413152
0.0413201
0.041324
0.0413276
0.0413311
0.0413345
0.0413381
0.0413414
0.041344
0.0413458
0.041346
0.0413436
0.0413382
0.0413282
0.0413137
0.0412941
0.0412707
0.0412451
0.0412199
0.0411982
0.0411821
0.0411727
0.0411688
0.0411687
0.0411725
0.0536644
0.0445008
0.0440846
0.0438301
0.0436118
0.0435018
0.043443
0.0434054
0.0433715
0.0433169
0.0432396
0.0431503
0.0430575
0.042962
0.0428611
0.0427499
0.0426253
0.0424829
0.0423199
0.0421371
0.0419358
0.0417208
0.0414979
0.0412761
0.0410688
0.0408888
0.0407363
0.0406075
0.0404994
0.0404085
0.0403304
0.0402607
0.0401963
0.0401365
0.0400823
0.0400345
0.0399929
0.0399569
0.0399254
0.0398975
0.039873
0.0398531
0.0398396
0.0398334
0.0398355
0.0398469
0.0398657
0.0398894
0.0399184
0.0399536
0.0399949
0.0400406
0.0400888
0.040137
0.0401881
0.0402308
0.0402849
0.0403185
0.0403573
0.0403901
0.0404232
0.0404565
0.0404921
0.0405249
0.0405599
0.0405905
0.0406206
0.0406513
0.0406828
0.040715
0.0407474
0.0407785
0.0408081
0.0408371
0.0408655
0.0408924
0.0409172
0.0409426
0.0409664
0.0409899
0.0410112
0.0410298
0.041044
0.0410566
0.041068
0.0410798
0.0410926
0.0411068
0.0411219
0.0411376
0.0411527
0.0411667
0.0411788
0.041189
0.041197
0.0412033
0.041208
0.0412116
0.0412145
0.0412171
0.0412197
0.0412224
0.0412253
0.041228
0.0412302
0.0412316
0.0412315
0.0412288
0.0412232
0.0412129
0.041198
0.0411781
0.041154
0.0411275
0.041101
0.0410777
0.0410599
0.0410487
0.0410437
0.0410434
0.0410531
0.0536566
0.044499
0.0440801
0.0438283
0.0436102
0.0434999
0.0434408
0.0434031
0.0433693
0.0433149
0.0432378
0.0431485
0.0430556
0.0429601
0.042859
0.0427475
0.0426225
0.0424795
0.0423157
0.042132
0.0419298
0.0417138
0.0414902
0.0412679
0.0410608
0.0408812
0.040729
0.0406003
0.0404921
0.0404008
0.0403221
0.0402516
0.040186
0.0401247
0.0400687
0.0400189
0.0399754
0.0399374
0.0399039
0.0398741
0.0398476
0.0398254
0.0398096
0.0398016
0.0398016
0.0398103
0.0398277
0.0398499
0.0398772
0.0399109
0.039951
0.039996
0.0400435
0.040091
0.0401408
0.0401834
0.0402371
0.0402693
0.0403076
0.0403392
0.0403708
0.0404026
0.0404367
0.0404681
0.0405022
0.0405314
0.0405612
0.0405909
0.0406217
0.040653
0.0406839
0.0407127
0.0407403
0.0407672
0.0407941
0.0408187
0.0408415
0.040864
0.0408849
0.0409056
0.0409237
0.0409392
0.040951
0.0409616
0.0409716
0.0409826
0.0409948
0.0410084
0.0410229
0.0410376
0.0410515
0.041064
0.0410743
0.0410825
0.0410886
0.0410928
0.0410955
0.0410971
0.041098
0.0410987
0.0410993
0.0411002
0.0411014
0.0411023
0.0411032
0.0411031
0.0411014
0.0410977
0.0410905
0.0410792
0.0410629
0.0410417
0.041016
0.0409875
0.0409588
0.0409328
0.040912
0.0408979
0.0408901
0.0408871
0.0408865
0.0536554
0.0444971
0.0440755
0.0438266
0.0436085
0.043498
0.0434386
0.0434007
0.043367
0.0433129
0.0432359
0.0431466
0.0430537
0.0429582
0.0428569
0.0427451
0.0426196
0.042476
0.0423114
0.0421269
0.0419237
0.0417068
0.0414823
0.0412597
0.0410528
0.0408736
0.0407217
0.0405932
0.0404848
0.0403931
0.0403138
0.0402424
0.0401756
0.0401127
0.0400549
0.0400032
0.0399577
0.0399176
0.0398821
0.0398502
0.0398217
0.0397974
0.0397792
0.0397692
0.039767
0.0397733
0.0397889
0.0398097
0.0398353
0.0398672
0.039906
0.0399501
0.0399969
0.0400439
0.0400924
0.0401346
0.0401874
0.0402183
0.0402565
0.0402874
0.0403178
0.0403477
0.0403796
0.0404094
0.0404427
0.0404713
0.0405009
0.0405292
0.0405577
0.040586
0.0406141
0.0406401
0.0406654
0.0406903
0.0407166
0.0407406
0.0407631
0.0407839
0.0408025
0.0408197
0.0408341
0.0408457
0.0408547
0.0408632
0.0408719
0.040882
0.0408936
0.0409064
0.0409197
0.0409331
0.0409453
0.0409559
0.0409642
0.0409704
0.0409746
0.040977
0.0409779
0.0409778
0.040977
0.0409762
0.0409753
0.0409747
0.0409743
0.040974
0.0409734
0.040972
0.0409693
0.0409642
0.0409562
0.0409439
0.0409269
0.0409047
0.040878
0.0408482
0.0408181
0.0407904
0.0407681
0.0407525
0.0407436
0.0407393
0.0407376
0.0536482
0.044495
0.0440709
0.0438248
0.0436068
0.0434961
0.0434364
0.0433984
0.0433647
0.0433109
0.043234
0.0431447
0.0430518
0.0429562
0.0428547
0.0427427
0.0426167
0.0424724
0.042307
0.0421216
0.0419175
0.0416997
0.0414744
0.0412514
0.0410448
0.040866
0.0407145
0.0405861
0.0404776
0.0403854
0.0403055
0.0402331
0.0401651
0.0401007
0.040041
0.0399873
0.0399397
0.0398975
0.0398598
0.0398259
0.0397953
0.0397687
0.0397482
0.0397359
0.0397314
0.0397355
0.039749
0.0397684
0.0397924
0.0398225
0.0398598
0.0399029
0.039949
0.0399952
0.0400424
0.0400841
0.0401359
0.0401656
0.0402036
0.0402344
0.0402641
0.0402924
0.0403217
0.0403493
0.0403811
0.0404088
0.0404377
0.040464
0.0404897
0.0405142
0.0405386
0.0405612
0.040584
0.040607
0.0406322
0.0406547
0.0406769
0.040697
0.0407153
0.040731
0.0407431
0.0407516
0.0407581
0.0407644
0.0407718
0.040781
0.0407919
0.0408039
0.0408162
0.0408281
0.0408385
0.0408471
0.0408534
0.0408577
0.04086
0.0408607
0.04086
0.0408585
0.0408564
0.0408543
0.0408524
0.0408508
0.0408495
0.0408483
0.0408469
0.0408449
0.0408416
0.0408362
0.0408278
0.0408154
0.0407982
0.0407759
0.0407489
0.0407187
0.0406879
0.0406595
0.0406364
0.0406201
0.0406107
0.0406063
0.0406044
0.0536478
0.0444929
0.0440663
0.043823
0.043605
0.0434941
0.0434341
0.043396
0.0433624
0.0433088
0.0432321
0.0431428
0.0430499
0.0429542
0.0428526
0.0427402
0.0426138
0.0424689
0.0423027
0.0421163
0.0419113
0.0416925
0.0414665
0.0412431
0.0410368
0.0408585
0.0407073
0.0405791
0.0404703
0.0403778
0.0402972
0.0402239
0.0401547
0.0400887
0.0400272
0.0399714
0.0399216
0.0398772
0.0398374
0.0398013
0.0397686
0.0397398
0.0397169
0.039702
0.0396954
0.0396975
0.0397086
0.0397265
0.039749
0.0397773
0.039813
0.0398548
0.0399001
0.0399457
0.0399919
0.0400331
0.0400838
0.0401124
0.0401499
0.0401804
0.0402095
0.0402371
0.0402643
0.0402897
0.0403189
0.0403446
0.0403718
0.0403961
0.0404191
0.0404401
0.0404607
0.0404791
0.0404982
0.0405188
0.0405427
0.0405651
0.040588
0.0406082
0.0406268
0.0406415
0.0406523
0.0406584
0.0406626
0.0406666
0.0406721
0.0406796
0.0406891
0.0406997
0.0407107
0.0407209
0.0407295
0.0407362
0.0407408
0.0407434
0.0407443
0.0407437
0.0407419
0.0407395
0.0407367
0.040734
0.0407315
0.0407295
0.0407278
0.0407263
0.0407246
0.0407224
0.0407191
0.0407138
0.0407056
0.0406935
0.0406766
0.0406545
0.0406277
0.0405975
0.0405666
0.0405379
0.0405145
0.0404981
0.0404886
0.0404845
0.0404832
0.0536427
0.0444908
0.0440617
0.0438211
0.0436033
0.0434921
0.0434318
0.0433935
0.0433601
0.0433068
0.0432302
0.0431409
0.0430479
0.0429522
0.0428504
0.0427377
0.0426108
0.0424653
0.0422983
0.042111
0.041905
0.0416853
0.0414585
0.0412348
0.0410288
0.040851
0.0407002
0.0405721
0.0404632
0.0403702
0.0402889
0.0402147
0.0401443
0.0400767
0.0400133
0.0399554
0.0399034
0.0398568
0.0398147
0.0397764
0.0397415
0.0397105
0.0396851
0.0396674
0.039659
0.0396588
0.0396672
0.0396836
0.0397047
0.0397313
0.0397652
0.0398057
0.0398501
0.0398951
0.0399405
0.0399812
0.0400306
0.0400577
0.0400941
0.0401244
0.0401534
0.0401811
0.0402068
0.0402303
0.0402564
0.0402797
0.0403049
0.0403274
0.0403482
0.0403665
0.0403842
0.0403996
0.040416
0.0404337
0.0404549
0.040476
0.0404988
0.0405191
0.0405377
0.0405512
0.0405601
0.0405636
0.0405653
0.0405675
0.0405715
0.040578
0.0405864
0.0405962
0.0406059
0.0406147
0.0406217
0.0406266
0.0406295
0.0406306
0.04063
0.0406282
0.0406256
0.0406224
0.0406191
0.0406159
0.0406132
0.0406109
0.0406091
0.0406075
0.0406058
0.0406037
0.0406005
0.0405955
0.0405877
0.0405761
0.0405597
0.0405381
0.0405114
0.0404813
0.0404504
0.0404216
0.0403981
0.0403816
0.0403722
0.0403686
0.0403681
0.0536436
0.0444886
0.044057
0.0438193
0.0436016
0.0434901
0.0434295
0.0433911
0.0433578
0.0433047
0.0432283
0.043139
0.043046
0.0429503
0.0428483
0.0427353
0.0426079
0.0424617
0.0422939
0.0421057
0.0418987
0.0416781
0.0414505
0.0412266
0.0410209
0.0408436
0.0406932
0.0405652
0.0404561
0.0403626
0.0402806
0.0402056
0.0401339
0.0400648
0.0399995
0.0399395
0.0398852
0.0398363
0.039792
0.0397514
0.0397143
0.039681
0.0396531
0.0396328
0.0396222
0.0396195
0.0396254
0.0396401
0.0396599
0.0396848
0.039717
0.039756
0.0397995
0.0398438
0.0398887
0.039929
0.0399773
0.0400029
0.0400377
0.0400671
0.0400959
0.0401237
0.0401485
0.0401714
0.0401949
0.040216
0.0402394
0.0402607
0.0402805
0.0402979
0.0403142
0.0403278
0.0403425
0.0403583
0.0403765
0.0403944
0.0404141
0.0404317
0.0404482
0.0404596
0.0404665
0.0404682
0.0404681
0.0404687
0.0404715
0.0404771
0.0404845
0.0404933
0.0405018
0.0405089
0.0405141
0.0405172
0.0405184
0.0405179
0.0405159
0.0405131
0.0405095
0.0405058
0.040502
0.0404986
0.0404957
0.0404933
0.0404914
0.0404899
0.0404884
0.0404866
0.0404838
0.0404793
0.0404721
0.0404612
0.0404454
0.0404242
0.0403979
0.040368
0.0403369
0.0403081
0.0402846
0.0402681
0.0402589
0.0402555
0.0402558
0.0536443
0.0444864
0.0440523
0.0438174
0.0435998
0.0434881
0.0434272
0.0433886
0.0433554
0.0433026
0.0432264
0.0431371
0.043044
0.0429483
0.0428461
0.0427328
0.0426049
0.0424581
0.0422895
0.0421004
0.0418925
0.0416709
0.0414426
0.0412184
0.041013
0.0408363
0.0406863
0.0405585
0.0404492
0.0403552
0.0402724
0.0401964
0.0401236
0.040053
0.0399857
0.0399235
0.039867
0.0398158
0.0397691
0.0397262
0.0396868
0.0396512
0.0396207
0.0395978
0.0395845
0.0395795
0.0395831
0.0395957
0.0396141
0.0396376
0.039668
0.0397055
0.0397479
0.0397915
0.0398362
0.0398763
0.0399236
0.0399476
0.0399802
0.0400075
0.0400348
0.0400627
0.0400876
0.0401111
0.0401335
0.0401537
0.0401761
0.0401973
0.0402172
0.0402353
0.0402512
0.0402637
0.040276
0.0402894
0.0403041
0.0403185
0.0403339
0.0403473
0.0403599
0.0403679
0.0403719
0.040372
0.040371
0.0403707
0.0403726
0.0403779
0.0403845
0.0403922
0.0403992
0.0404047
0.0404082
0.0404095
0.040409
0.0404068
0.0404037
0.0403997
0.0403953
0.0403909
0.0403867
0.0403829
0.0403795
0.0403769
0.0403748
0.0403733
0.0403719
0.0403703
0.0403679
0.0403638
0.0403571
0.0403468
0.0403316
0.0403109
0.0402849
0.040255
0.0402238
0.0401948
0.040171
0.0401546
0.0401454
0.0401422
0.0401431
0.053645
0.044484
0.0440476
0.0438155
0.0435981
0.0434861
0.0434248
0.0433862
0.043353
0.0433005
0.0432245
0.0431352
0.043042
0.0429463
0.0428439
0.0427303
0.0426019
0.0424545
0.0422851
0.0420951
0.0418862
0.0416637
0.0414346
0.0412102
0.0410052
0.0408291
0.0406796
0.0405518
0.0404424
0.0403478
0.0402644
0.0401874
0.0401134
0.0400412
0.0399721
0.0399077
0.0398489
0.0397953
0.0397462
0.039701
0.0396593
0.0396213
0.0395883
0.0395627
0.0395464
0.0395393
0.0395407
0.0395507
0.0395677
0.0395897
0.0396185
0.0396544
0.0396956
0.0397386
0.0397831
0.0398232
0.0398693
0.0398918
0.0399223
0.0399476
0.0399732
0.0400004
0.0400249
0.0400492
0.0400717
0.040093
0.040116
0.0401381
0.0401583
0.0401773
0.0401931
0.040205
0.0402155
0.0402269
0.040238
0.0402488
0.0402598
0.0402683
0.0402754
0.0402781
0.0402775
0.0402748
0.0402729
0.0402721
0.0402743
0.0402792
0.0402853
0.0402918
0.0402972
0.0403008
0.0403024
0.0403019
0.0402995
0.0402961
0.0402916
0.0402868
0.0402816
0.0402766
0.0402717
0.0402672
0.0402634
0.0402603
0.040258
0.0402563
0.040255
0.0402535
0.0402514
0.0402477
0.0402416
0.0402319
0.0402174
0.0401973
0.0401716
0.0401419
0.0401104
0.0400812
0.0400572
0.0400406
0.0400315
0.0400284
0.0400297
0.0536449
0.0444814
0.0440429
0.0438135
0.0435963
0.043484
0.0434225
0.0433837
0.0433507
0.0432984
0.0432225
0.0431333
0.0430401
0.0429443
0.0428417
0.0427278
0.042599
0.0424509
0.0422807
0.0420898
0.0418799
0.0416565
0.0414267
0.0412021
0.0409975
0.0408219
0.0406729
0.0405453
0.0404356
0.0403406
0.0402563
0.0401784
0.0401032
0.0400295
0.0399585
0.039892
0.0398308
0.0397747
0.0397233
0.0396756
0.0396315
0.0395911
0.0395556
0.0395271
0.0395078
0.0394987
0.0394977
0.0395048
0.0395201
0.0395408
0.039568
0.0396023
0.0396423
0.0396846
0.0397287
0.0397691
0.0398143
0.0398362
0.0398648
0.0398883
0.0399122
0.0399377
0.0399604
0.0399848
0.0400078
0.040031
0.0400555
0.0400793
0.0401001
0.0401198
0.040135
0.0401456
0.040154
0.0401633
0.0401709
0.0401781
0.0401846
0.0401886
0.0401905
0.0401883
0.0401833
0.0401781
0.040175
0.0401747
0.0401772
0.0401822
0.0401877
0.040193
0.0401967
0.0401983
0.0401979
0.0401955
0.0401918
0.0401869
0.0401814
0.0401757
0.0401698
0.0401639
0.0401581
0.0401528
0.0401482
0.0401444
0.0401415
0.0401394
0.0401378
0.0401362
0.0401341
0.0401307
0.040125
0.0401159
0.040102
0.0400825
0.0400572
0.0400276
0.039996
0.0399664
0.039942
0.0399252
0.039916
0.039913
0.0399145
0.0536457
0.0444787
0.0440381
0.0438116
0.0435946
0.043482
0.0434201
0.0433812
0.0433483
0.0432962
0.0432206
0.0431313
0.0430381
0.0429423
0.0428396
0.0427253
0.042596
0.0424472
0.0422762
0.0420844
0.0418736
0.0416493
0.0414188
0.041194
0.0409898
0.0408149
0.0406664
0.040539
0.040429
0.0403334
0.0402484
0.0401696
0.0400932
0.0400179
0.0399451
0.0398764
0.0398128
0.0397543
0.0397004
0.0396503
0.0396038
0.039561
0.0395229
0.0394915
0.0394694
0.0394577
0.0394542
0.0394588
0.039472
0.0394912
0.0395168
0.0395494
0.0395882
0.0396297
0.0396734
0.039714
0.0397584
0.0397802
0.0398077
0.0398304
0.0398529
0.0398761
0.0398965
0.0399202
0.0399431
0.0399676
0.039993
0.0400174
0.040038
0.0400571
0.0400705
0.0400786
0.0400845
0.0400915
0.0400965
0.0401018
0.0401058
0.0401072
0.0401054
0.0400998
0.0400916
0.0400843
0.0400805
0.04008
0.0400823
0.0400867
0.040091
0.0400946
0.040096
0.0400955
0.040093
0.040089
0.0400837
0.0400777
0.0400714
0.0400648
0.040058
0.0400511
0.0400444
0.0400381
0.0400325
0.0400279
0.0400243
0.0400217
0.0400197
0.0400179
0.0400157
0.0400125
0.0400071
0.0399985
0.0399852
0.0399664
0.0399416
0.0399123
0.0398806
0.0398508
0.039826
0.039809
0.0397998
0.0397968
0.0397985
0.0536407
0.0444759
0.0440334
0.0438096
0.0435928
0.0434799
0.0434177
0.0433787
0.0433459
0.0432941
0.0432186
0.0431294
0.0430361
0.0429403
0.0428374
0.0427228
0.042593
0.0424436
0.0422718
0.0420791
0.0418674
0.0416421
0.0414109
0.041186
0.0409823
0.040808
0.0406599
0.0405327
0.0404226
0.0403264
0.0402406
0.0401608
0.0400831
0.0400064
0.0399317
0.0398608
0.0397948
0.0397338
0.0396774
0.0396249
0.0395759
0.0395306
0.0394898
0.0394557
0.0394306
0.0394161
0.0394102
0.0394123
0.0394231
0.0394407
0.0394646
0.0394955
0.0395329
0.0395735
0.0396167
0.0396574
0.0397013
0.039723
0.0397498
0.0397723
0.0397943
0.0398163
0.0398348
0.0398572
0.0398786
0.0399024
0.0399264
0.0399495
0.0399688
0.0399868
0.0399979
0.0400035
0.0400067
0.0400112
0.0400138
0.0400176
0.04002
0.0400205
0.0400172
0.0400099
0.0399996
0.0399909
0.0399862
0.0399853
0.0399873
0.039991
0.0399942
0.0399959
0.0399953
0.0399927
0.0399884
0.0399827
0.0399762
0.0399694
0.0399623
0.0399548
0.039947
0.0399391
0.0399311
0.0399237
0.0399171
0.0399115
0.039907
0.0399036
0.039901
0.0398988
0.0398964
0.039893
0.0398877
0.0398794
0.0398665
0.0398482
0.0398238
0.0397946
0.0397628
0.0397327
0.0397076
0.0396904
0.039681
0.039678
0.0396797
0.0536391
0.0444728
0.0440286
0.0438076
0.0435911
0.0434778
0.0434153
0.0433762
0.0433434
0.0432919
0.0432167
0.0431275
0.0430342
0.0429383
0.0428352
0.0427203
0.04259
0.04244
0.0422674
0.0420737
0.0418611
0.0416349
0.0414031
0.0411781
0.0409748
0.0408012
0.0406536
0.0405266
0.0404162
0.0403195
0.0402329
0.040152
0.0400732
0.039995
0.0399185
0.0398454
0.039777
0.0397135
0.0396545
0.0395994
0.039548
0.0395001
0.0394568
0.0394198
0.0393918
0.0393741
0.0393661
0.039366
0.0393737
0.0393895
0.0394117
0.039441
0.0394769
0.0395164
0.039559
0.0395994
0.0396425
0.0396644
0.0396908
0.0397133
0.0397352
0.0397573
0.0397758
0.0397972
0.0398153
0.039836
0.0398562
0.0398759
0.0398925
0.0399088
0.039918
0.0399216
0.0399227
0.0399247
0.0399251
0.0399275
0.0399289
0.0399294
0.0399264
0.0399194
0.0399091
0.0399002
0.0398949
0.0398933
0.0398941
0.0398961
0.0398972
0.0398966
0.0398937
0.0398889
0.0398826
0.0398754
0.039868
0.0398602
0.0398522
0.0398437
0.0398347
0.0398256
0.0398166
0.0398081
0.0398004
0.0397939
0.0397887
0.0397847
0.0397815
0.0397789
0.0397761
0.0397725
0.039767
0.0397587
0.039746
0.039728
0.0397038
0.0396747
0.0396427
0.0396122
0.0395867
0.0395691
0.0395597
0.0395566
0.0395581
0.0536362
0.0444697
0.0440238
0.0438056
0.0435893
0.0434757
0.0434129
0.0433736
0.043341
0.0432898
0.0432147
0.0431256
0.0430322
0.0429362
0.042833
0.0427178
0.042587
0.0424363
0.0422629
0.0420684
0.0418548
0.0416277
0.0413953
0.0411703
0.0409674
0.0407944
0.0406474
0.0405205
0.04041
0.0403127
0.0402252
0.0401434
0.0400634
0.0399837
0.0399053
0.0398301
0.0397592
0.0396931
0.0396315
0.0395739
0.0395199
0.0394695
0.0394235
0.0393837
0.0393526
0.0393319
0.0393216
0.0393191
0.0393239
0.0393375
0.039358
0.0393855
0.0394197
0.039458
0.0394999
0.0395399
0.0395824
0.0396046
0.0396305
0.0396529
0.0396742
0.0396959
0.0397151
0.0397371
0.0397534
0.0397702
0.0397847
0.0397994
0.0398121
0.0398261
0.0398338
0.0398368
0.0398366
0.0398367
0.0398353
0.0398361
0.0398365
0.0398369
0.0398341
0.0398281
0.0398191
0.039811
0.0398053
0.0398027
0.0398019
0.0398015
0.0398003
0.0397969
0.0397915
0.0397844
0.0397765
0.039768
0.0397595
0.0397506
0.0397414
0.0397315
0.0397213
0.0397108
0.0397006
0.039691
0.0396824
0.0396751
0.0396692
0.0396646
0.0396608
0.0396576
0.0396544
0.0396504
0.0396446
0.039636
0.0396231
0.0396049
0.0395806
0.0395512
0.0395187
0.0394876
0.0394615
0.0394436
0.0394339
0.0394308
0.0394322
0.0536349
0.0444663
0.0440189
0.0438035
0.0435875
0.0434736
0.0434104
0.0433711
0.0433386
0.0432876
0.0432128
0.0431236
0.0430302
0.0429342
0.0428308
0.0427153
0.042584
0.0424327
0.0422585
0.042063
0.0418485
0.0416206
0.0413876
0.0411625
0.0409602
0.0407878
0.0406413
0.0405146
0.0404039
0.040306
0.0402177
0.0401349
0.0400536
0.0399725
0.0398923
0.0398149
0.0397415
0.0396729
0.0396086
0.0395484
0.0394918
0.0394388
0.0393902
0.0393476
0.0393134
0.0392897
0.0392767
0.0392717
0.0392742
0.0392852
0.0393038
0.0393294
0.0393619
0.039399
0.0394399
0.0394793
0.039521
0.0395439
0.0395686
0.0395898
0.0396106
0.0396325
0.039653
0.039676
0.0396922
0.0397055
0.0397143
0.0397235
0.0397323
0.0397442
0.0397513
0.0397549
0.0397547
0.0397538
0.0397513
0.0397504
0.0397491
0.0397481
0.0397441
0.0397377
0.0397292
0.0397215
0.0397158
0.0397122
0.0397097
0.0397069
0.0397028
0.0396964
0.0396883
0.039679
0.0396694
0.0396595
0.0396496
0.0396392
0.0396284
0.0396169
0.0396051
0.0395932
0.0395817
0.039571
0.0395617
0.0395538
0.0395473
0.0395421
0.039538
0.0395344
0.0395307
0.0395263
0.0395202
0.0395112
0.039498
0.0394794
0.0394547
0.0394244
0.0393911
0.0393589
0.0393318
0.0393132
0.0393033
0.0393001
0.0393012
0.053636
0.0444629
0.0440141
0.0438014
0.0435857
0.0434715
0.043408
0.0433685
0.0433361
0.0432854
0.0432108
0.0431217
0.0430283
0.0429322
0.0428286
0.0427127
0.042581
0.042429
0.042254
0.0420577
0.0418422
0.0416134
0.0413798
0.0411548
0.040953
0.0407813
0.0406353
0.0405088
0.0403978
0.0402994
0.0402103
0.0401264
0.0400439
0.0399613
0.0398793
0.0397998
0.039724
0.0396526
0.0395856
0.0395227
0.0394635
0.0394079
0.0393566
0.0393111
0.0392738
0.0392471
0.0392311
0.039224
0.0392242
0.0392323
0.0392489
0.0392725
0.0393033
0.039339
0.0393788
0.0394173
0.0394582
0.0394823
0.0395065
0.039527
0.0395461
0.039567
0.039588
0.0396116
0.0396284
0.0396405
0.0396466
0.0396526
0.0396589
0.0396691
0.0396762
0.0396809
0.0396816
0.0396805
0.0396768
0.0396736
0.0396697
0.0396657
0.0396588
0.0396504
0.0396412
0.0396331
0.0396268
0.039622
0.0396176
0.0396123
0.0396052
0.0395959
0.0395854
0.0395741
0.0395627
0.039551
0.0395393
0.0395268
0.039514
0.0395004
0.0394867
0.0394731
0.0394602
0.0394485
0.0394382
0.0394296
0.0394226
0.039417
0.0394124
0.0394084
0.0394045
0.0393997
0.0393933
0.039384
0.0393705
0.0393513
0.039326
0.0392947
0.0392601
0.0392262
0.0391977
0.039178
0.0391675
0.0391641
0.0391651
0.0536376
0.0444592
0.0440092
0.0437993
0.0435839
0.0434693
0.0434055
0.0433659
0.0433336
0.0432832
0.0432088
0.0431197
0.0430263
0.0429302
0.0428264
0.0427102
0.042578
0.0424253
0.0422495
0.0420523
0.0418359
0.0416062
0.0413722
0.0411471
0.0409459
0.0407749
0.0406294
0.0405031
0.040392
0.0402929
0.040203
0.040118
0.0400344
0.0399503
0.0398665
0.0397848
0.0397065
0.0396324
0.0395627
0.0394971
0.0394351
0.0393769
0.0393229
0.0392746
0.0392342
0.0392042
0.0391852
0.0391759
0.0391739
0.0391792
0.0391936
0.0392152
0.0392443
0.0392786
0.0393172
0.0393544
0.0393944
0.0394197
0.0394438
0.0394651
0.0394827
0.0395011
0.0395206
0.039544
0.039562
0.0395755
0.0395827
0.0395886
0.0395939
0.0396023
0.0396092
0.0396152
0.0396175
0.039617