/*--------------------------------*- C++ -*----------------------------------*\
| =========                 |                                                 |
| \\      /  F ield         | OpenFOAM: The Open Source CFD Toolbox           |
|  \\    /   O peration     | Version:  2412                                  |
|   \\  /    A nd           | Website:  www.openfoam.com                      |
|    \\/     M anipulation  |                                                 |
\*---------------------------------------------------------------------------*/
FoamFile
{
    version     2.0;
    format      ascii;
    arch        "LSB;label=32;scalar=64";
    class       volVectorField;
    location    "0.076";
    object      U;
}
// * * * * * * * * * * * * * * * * * * * * * * * * * * * * * * * * * * * * * //

dimensions      [0 1 -1 0 0 0 0];

internalField   nonuniform List<vector> 
9922
(
(168.791 111.307 0)
(160.947 16.4855 0)
(174.388 4.0769 0)
(184.385 3.41157 0)
(191.785 -0.15642 0)
(197.248 -1.83779 0)
(199.788 -4.20056 0)
(200.874 -5.94278 0)
(201.706 -7.28948 0)
(202.523 -8.40955 0)
(203.413 -9.32544 0)
(204.305 -10.0798 0)
(205.166 -10.6941 0)
(205.977 -11.1899 0)
(206.762 -11.5915 0)
(207.553 -11.9016 0)
(208.339 -12.159 0)
(209.126 -12.3728 0)
(209.916 -12.567 0)
(210.716 -12.7512 0)
(211.532 -12.943 0)
(212.367 -13.1495 0)
(213.224 -13.3762 0)
(214.105 -13.6225 0)
(215.006 -13.8894 0)
(215.925 -14.1772 0)
(216.859 -14.4859 0)
(217.811 -14.8123 0)
(218.786 -15.1544 0)
(219.788 -15.5106 0)
(220.821 -15.8815 0)
(221.89 -16.267 0)
(223.002 -16.6665 0)
(224.164 -17.0794 0)
(225.382 -17.5062 0)
(226.662 -17.9501 0)
(228.01 -18.4136 0)
(229.432 -18.9005 0)
(230.93 -19.4141 0)
(232.508 -19.9593 0)
(234.17 -20.5405 0)
(235.917 -21.163 0)
(237.755 -21.8322 0)
(239.685 -22.5549 0)
(241.708 -23.3389 0)
(243.824 -24.1916 0)
(246.026 -25.1188 0)
(248.312 -26.1254 0)
(250.676 -27.2175 0)
(253.118 -28.4035 0)
(255.636 -29.6935 0)
(258.228 -31.0972 0)
(260.893 -32.6213 0)
(263.639 -34.267 0)
(266.454 -36.038 0)
(269.257 -37.953 0)
(272.115 -40.0532 0)
(275.731 -42.2971 0)
(283.001 -44.3872 0)
(297.32 -45.1504 0)
(311.519 -44.4389 0)
(321.076 -43.8096 0)
(327.013 -43.8654 0)
(331.291 -44.2166 0)
(335.207 -44.6193 0)
(338.587 -45.0827 0)
(341.427 -45.4588 0)
(344.099 -45.8041 0)
(346.687 -46.1389 0)
(348.952 -46.4208 0)
(350.94 -46.6255 0)
(352.818 -46.8244 0)
(354.612 -46.9626 0)
(356.295 -47.139 0)
(357.815 -47.2074 0)
(359.207 -47.3176 0)
(360.527 -47.3242 0)
(361.709 -47.4315 0)
(362.866 -47.4227 0)
(363.957 -47.5439 0)
(365.023 -47.5385 0)
(366.021 -47.67 0)
(367.005 -47.6681 0)
(367.908 -47.7814 0)
(368.783 -47.7594 0)
(369.577 -47.8454 0)
(370.349 -47.8307 0)
(371.056 -47.9198 0)
(371.748 -47.9142 0)
(372.394 -47.9783 0)
(373.027 -47.9666 0)
(373.616 -48.015 0)
(374.19 -48.018 0)
(374.731 -48.0688 0)
(375.257 -48.0905 0)
(375.761 -48.1356 0)
(376.253 -48.1613 0)
(376.728 -48.192 0)
(377.186 -48.2155 0)
(377.62 -48.2309 0)
(378.024 -48.254 0)
(378.4 -48.268 0)
(378.754 -48.2985 0)
(379.101 -48.3095 0)
(379.443 -48.3374 0)
(379.786 -48.3472 0)
(380.114 -48.3726 0)
(380.414 -48.3825 0)
(380.663 -48.3999 0)
(380.846 -48.4071 0)
(380.946 -48.408 0)
(380.949 -48.4094 0)
(380.877 -48.3835 0)
(380.777 -48.3965 0)
(380.747 -48.3805 0)
(380.867 -48.4051 0)
(381.193 -48.4444 0)
(381.711 -48.5149 0)
(382.334 -48.5968 0)
(382.971 -48.6967 0)
(383.324 -48.4475 0)
(168.557 111.312 0)
(161.038 16.281 0)
(174.501 3.96755 0)
(184.467 3.38027 0)
(191.866 -0.161091 0)
(197.317 -1.82469 0)
(199.848 -4.17799 0)
(200.922 -5.91696 0)
(201.746 -7.26182 0)
(202.558 -8.38102 0)
(203.444 -9.29734 0)
(204.334 -10.0519 0)
(205.192 -10.6666 0)
(206.002 -11.162 0)
(206.786 -11.5633 0)
(207.576 -11.8728 0)
(208.361 -12.1294 0)
(209.148 -12.3419 0)
(209.936 -12.5345 0)
(210.735 -12.7167 0)
(211.549 -12.906 0)
(212.382 -13.1098 0)
(213.237 -13.3334 0)
(214.116 -13.5765 0)
(215.017 -13.8403 0)
(215.935 -14.1251 0)
(216.868 -14.4305 0)
(217.822 -14.7535 0)
(218.799 -15.0917 0)
(219.803 -15.4437 0)
(220.839 -15.8098 0)
(221.913 -16.19 0)
(223.03 -16.5834 0)
(224.197 -16.9894 0)
(225.422 -17.4083 0)
(226.711 -17.8433 0)
(228.069 -18.2968 0)
(229.503 -18.7728 0)
(231.015 -19.2745 0)
(232.611 -19.8068 0)
(234.293 -20.3741 0)
(236.065 -20.9816 0)
(237.93 -21.6345 0)
(239.892 -22.3397 0)
(241.954 -23.1052 0)
(244.116 -23.939 0)
(246.376 -24.8474 0)
(248.732 -25.8354 0)
(251.182 -26.9092 0)
(253.729 -28.077 0)
(256.375 -29.3498 0)
(259.127 -30.7377 0)
(261.997 -32.2476 0)
(265.002 -33.8813 0)
(268.132 -35.6517 0)
(271.405 -37.5869 0)
(275.331 -39.675 0)
(281.502 -41.6642 0)
(292.667 -42.9088 0)
(305.223 -42.8277 0)
(315.176 -42.3714 0)
(321.946 -42.319 0)
(327.086 -42.5963 0)
(331.508 -43.0663 0)
(335.145 -43.558 0)
(338.428 -44.0485 0)
(341.544 -44.5332 0)
(344.251 -44.9429 0)
(346.6 -45.2652 0)
(348.861 -45.5656 0)
(351.046 -45.8593 0)
(352.979 -46.1072 0)
(354.712 -46.2541 0)
(356.258 -46.4045 0)
(357.726 -46.4693 0)
(359.122 -46.5941 0)
(360.484 -46.6131 0)
(361.769 -46.7466 0)
(362.984 -46.761 0)
(364.084 -46.8999 0)
(365.135 -46.9016 0)
(366.09 -47.0352 0)
(367.016 -47.0144 0)
(367.874 -47.1169 0)
(368.723 -47.0889 0)
(369.501 -47.1941 0)
(370.261 -47.1887 0)
(370.966 -47.291 0)
(371.661 -47.2792 0)
(372.312 -47.3441 0)
(372.951 -47.3188 0)
(373.542 -47.3689 0)
(374.122 -47.3599 0)
(374.669 -47.4111 0)
(375.211 -47.4199 0)
(375.731 -47.4676 0)
(376.236 -47.487 0)
(376.714 -47.5193 0)
(377.172 -47.5318 0)
(377.603 -47.5473 0)
(378.009 -47.5684 0)
(378.394 -47.5874 0)
(378.764 -47.6162 0)
(379.131 -47.6302 0)
(379.494 -47.6569 0)
(379.858 -47.6666 0)
(380.207 -47.69 0)
(380.528 -47.7002 0)
(380.796 -47.7184 0)
(381.001 -47.7276 0)
(381.123 -47.7321 0)
(381.149 -47.7368 0)
(381.096 -47.7106 0)
(381.011 -47.7299 0)
(380.989 -47.708 0)
(381.112 -47.7327 0)
(381.444 -47.7611 0)
(381.966 -47.8338 0)
(382.593 -47.9132 0)
(383.232 -48.0098 0)
(383.585 -47.7601 0)
(168.319 111.315 0)
(161.126 16.0719 0)
(174.613 3.85535 0)
(184.549 3.34751 0)
(191.948 -0.166892 0)
(197.389 -1.81337 0)
(199.91 -4.15824 0)
(200.973 -5.89387 0)
(201.788 -7.23581 0)
(202.594 -8.35328 0)
(203.477 -9.2698 0)
(204.364 -10.0246 0)
(205.22 -10.6396 0)
(206.029 -11.1347 0)
(206.812 -11.5357 0)
(207.601 -11.8444 0)
(208.386 -12.1001 0)
(209.171 -12.3114 0)
(209.959 -12.5023 0)
(210.757 -12.6825 0)
(211.569 -12.8692 0)
(212.4 -13.0702 0)
(213.253 -13.2908 0)
(214.131 -13.5308 0)
(215.03 -13.7915 0)
(215.948 -14.0732 0)
(216.882 -14.3755 0)
(217.837 -14.6951 0)
(218.816 -15.0295 0)
(219.823 -15.3774 0)
(220.863 -15.7391 0)
(221.941 -16.1141 0)
(223.064 -16.5016 0)
(224.239 -16.9008 0)
(225.472 -17.3121 0)
(226.77 -17.7385 0)
(228.139 -18.1824 0)
(229.585 -18.6477 0)
(231.114 -19.1377 0)
(232.728 -19.6575 0)
(234.432 -20.2114 0)
(236.229 -20.8044 0)
(238.123 -21.4414 0)
(240.119 -22.1295 0)
(242.221 -22.8769 0)
(244.432 -23.6918 0)
(246.751 -24.581 0)
(249.179 -25.55 0)
(251.718 -26.6048 0)
(254.372 -27.7534 0)
(257.152 -29.0068 0)
(260.073 -30.375 0)
(263.159 -31.8647 0)
(266.431 -33.4794 0)
(269.929 -35.2366 0)
(273.901 -37.1281 0)
(279.306 -39.0125 0)
(287.972 -40.5043 0)
(298.851 -41.0018 0)
(308.777 -40.8475 0)
(316.432 -40.7544 0)
(322.41 -40.9428 0)
(327.271 -41.3785 0)
(331.353 -41.9031 0)
(335.158 -42.4833 0)
(338.505 -43.0675 0)
(341.365 -43.5622 0)
(344.06 -44.006 0)
(346.631 -44.4056 0)
(348.901 -44.7486 0)
(350.908 -45.0346 0)
(352.806 -45.3027 0)
(354.59 -45.5011 0)
(356.261 -45.6786 0)
(357.819 -45.7587 0)
(359.229 -45.907 0)
(360.541 -45.9523 0)
(361.751 -46.0993 0)
(362.929 -46.1201 0)
(364.022 -46.2698 0)
(365.083 -46.2756 0)
(366.069 -46.4074 0)
(367.035 -46.3828 0)
(367.922 -46.4923 0)
(368.787 -46.4691 0)
(369.578 -46.5794 0)
(370.354 -46.566 0)
(371.076 -46.6617 0)
(371.789 -46.6375 0)
(372.447 -46.7034 0)
(373.088 -46.6784 0)
(373.672 -46.7377 0)
(374.24 -46.7294 0)
(374.771 -46.782 0)
(375.296 -46.785 0)
(375.799 -46.8306 0)
(376.294 -46.8454 0)
(376.769 -46.8743 0)
(377.227 -46.8854 0)
(377.657 -46.9057 0)
(378.055 -46.9346 0)
(378.424 -46.9572 0)
(378.77 -46.9886 0)
(379.111 -47.0019 0)
(379.452 -47.0278 0)
(379.799 -47.0331 0)
(380.133 -47.0539 0)
(380.443 -47.0594 0)
(380.703 -47.075 0)
(380.902 -47.0772 0)
(381.021 -47.076 0)
(381.047 -47.0701 0)
(380.995 -47.037 0)
(380.911 -47.0412 0)
(380.891 -47.0128 0)
(381.016 -47.0273 0)
(381.352 -47.0403 0)
(381.874 -47.1026 0)
(382.5 -47.1688 0)
(383.14 -47.2615 0)
(383.492 -47.0089 0)
(168.075 111.313 0)
(161.216 15.8586 0)
(174.726 3.74028 0)
(184.633 3.31328 0)
(192.032 -0.173693 0)
(197.461 -1.80123 0)
(199.973 -4.13555 0)
(201.023 -5.86757 0)
(201.829 -7.20737 0)
(202.63 -8.32377 0)
(203.509 -9.2407 0)
(204.394 -9.99576 0)
(205.248 -10.6111 0)
(206.055 -11.1059 0)
(206.837 -11.5066 0)
(207.625 -11.8147 0)
(208.409 -12.0695 0)
(209.193 -12.2796 0)
(209.98 -12.469 0)
(210.776 -12.6472 0)
(211.586 -12.8314 0)
(212.415 -13.0297 0)
(213.266 -13.2471 0)
(214.142 -13.484 0)
(215.041 -13.7414 0)
(215.957 -14.0201 0)
(216.892 -14.319 0)
(217.847 -14.635 0)
(218.827 -14.9655 0)
(219.837 -15.3091 0)
(220.88 -15.6658 0)
(221.962 -16.0354 0)
(223.09 -16.4166 0)
(224.27 -16.8087 0)
(225.511 -17.2118 0)
(226.817 -17.629 0)
(228.196 -18.0627 0)
(229.654 -18.5165 0)
(231.196 -18.994 0)
(232.827 -19.5003 0)
(234.551 -20.0395 0)
(236.372 -20.6166 0)
(238.294 -21.2364 0)
(240.322 -21.9056 0)
(242.461 -22.6324 0)
(244.717 -23.4256 0)
(247.091 -24.2922 0)
(249.588 -25.2378 0)
(252.211 -26.2683 0)
(254.971 -27.3915 0)
(257.883 -28.6176 0)
(260.973 -29.9558 0)
(264.272 -31.413 0)
(267.829 -32.9939 0)
(271.804 -34.703 0)
(276.687 -36.4579 0)
(283.448 -37.9957 0)
(292.769 -38.9605 0)
(302.304 -39.1974 0)
(310.529 -39.171 0)
(317.155 -39.295 0)
(322.498 -39.6422 0)
(327.139 -40.1375 0)
(331.352 -40.7497 0)
(334.954 -41.3771 0)
(338.269 -42.0003 0)
(341.392 -42.586 0)
(344.127 -43.0939 0)
(346.508 -43.5122 0)
(348.782 -43.8781 0)
(350.956 -44.1899 0)
(352.944 -44.475 0)
(354.749 -44.6999 0)
(356.394 -44.9272 0)
(357.929 -45.0632 0)
(359.358 -45.2478 0)
(360.712 -45.3162 0)
(361.967 -45.4667 0)
(363.159 -45.4858 0)
(364.256 -45.6263 0)
(365.318 -45.6383 0)
(366.305 -45.7822 0)
(367.258 -45.7812 0)
(368.131 -45.9012 0)
(368.982 -45.8812 0)
(369.774 -45.9852 0)
(370.553 -45.9718 0)
(371.281 -46.0634 0)
(371.994 -46.0445 0)
(372.652 -46.111 0)
(373.286 -46.0951 0)
(373.87 -46.1512 0)
(374.437 -46.1442 0)
(374.976 -46.1851 0)
(375.503 -46.1898 0)
(376.011 -46.2298 0)
(376.507 -46.2542 0)
(376.985 -46.2816 0)
(377.438 -46.2991 0)
(377.864 -46.309 0)
(378.254 -46.3334 0)
(378.626 -46.338 0)
(378.977 -46.3626 0)
(379.329 -46.3624 0)
(379.677 -46.3864 0)
(380.03 -46.3871 0)
(380.365 -46.4127 0)
(380.677 -46.4173 0)
(380.936 -46.4365 0)
(381.135 -46.4339 0)
(381.252 -46.4317 0)
(381.276 -46.4182 0)
(381.218 -46.3829 0)
(381.125 -46.3801 0)
(381.093 -46.3447 0)
(381.205 -46.3524 0)
(381.527 -46.3554 0)
(382.038 -46.4108 0)
(382.663 -46.4611 0)
(383.304 -46.5447 0)
(383.656 -46.2893 0)
(167.827 111.308 0)
(161.299 15.6402 0)
(174.839 3.62234 0)
(184.717 3.2775 0)
(192.118 -0.181738 0)
(197.535 -1.79099 0)
(200.037 -4.11572 0)
(201.076 -5.84399 0)
(201.873 -7.18054 0)
(202.668 -8.29502 0)
(203.542 -9.21213 0)
(204.425 -9.96743 0)
(205.277 -10.5832 0)
(206.084 -11.0777 0)
(206.864 -11.4781 0)
(207.651 -11.7854 0)
(208.434 -12.0393 0)
(209.218 -12.2482 0)
(210.003 -12.436 0)
(210.798 -12.6121 0)
(211.606 -12.7939 0)
(212.433 -12.9893 0)
(213.282 -13.2037 0)
(214.157 -13.4373 0)
(215.054 -13.6917 0)
(215.97 -13.9672 0)
(216.905 -14.2629 0)
(217.861 -14.5753 0)
(218.843 -14.9019 0)
(219.856 -15.2412 0)
(220.903 -15.5934 0)
(221.989 -15.9576 0)
(223.123 -16.3327 0)
(224.31 -16.7178 0)
(225.558 -17.1131 0)
(226.874 -17.5214 0)
(228.264 -17.9451 0)
(229.734 -18.3878 0)
(231.291 -18.853 0)
(232.94 -19.346 0)
(234.686 -19.8708 0)
(236.532 -20.4324 0)
(238.483 -21.0354 0)
(240.545 -21.6862 0)
(242.723 -22.3929 0)
(245.025 -23.1644 0)
(247.456 -24.008 0)
(250.023 -24.9295 0)
(252.733 -25.9347 0)
(255.601 -27.0306 0)
(258.65 -28.2263 0)
(261.913 -29.5301 0)
(265.435 -30.9486 0)
(269.325 -32.4789 0)
(273.869 -34.0895 0)
(279.624 -35.6148 0)
(287.28 -36.8019 0)
(296.034 -37.3881 0)
(304.337 -37.5537 0)
(311.455 -37.6642 0)
(317.396 -37.9293 0)
(322.619 -38.3591 0)
(327.178 -38.9362 0)
(331.172 -39.5849 0)
(334.934 -40.2876 0)
(338.301 -40.9897 0)
(341.239 -41.5944 0)
(343.989 -42.1443 0)
(346.587 -42.64 0)
(348.905 -43.0501 0)
(350.999 -43.3931 0)
(352.961 -43.7152 0)
(354.812 -44.0007 0)
(356.505 -44.2757 0)
(358.042 -44.4342 0)
(359.435 -44.6026 0)
(360.741 -44.646 0)
(361.961 -44.7697 0)
(363.143 -44.7948 0)
(364.25 -44.9421 0)
(365.316 -44.9765 0)
(366.296 -45.1156 0)
(367.234 -45.1297 0)
(368.103 -45.2446 0)
(368.954 -45.2404 0)
(369.746 -45.3323 0)
(370.522 -45.3306 0)
(371.246 -45.4073 0)
(371.952 -45.4012 0)
(372.605 -45.4578 0)
(373.232 -45.4627 0)
(373.814 -45.5079 0)
(374.38 -45.5125 0)
(374.92 -45.5347 0)
(375.447 -45.5486 0)
(375.955 -45.5743 0)
(376.447 -45.6058 0)
(376.922 -45.6167 0)
(377.366 -45.6373 0)
(377.784 -45.6342 0)
(378.166 -45.6686 0)
(378.535 -45.6699 0)
(378.887 -45.7045 0)
(379.243 -45.6972 0)
(379.594 -45.7236 0)
(379.952 -45.7179 0)
(380.293 -45.7479 0)
(380.612 -45.7487 0)
(380.881 -45.7698 0)
(381.094 -45.7585 0)
(381.225 -45.7522 0)
(381.267 -45.7275 0)
(381.226 -45.6895 0)
(381.149 -45.6791 0)
(381.132 -45.6395 0)
(381.256 -45.6422 0)
(381.595 -45.646 0)
(382.124 -45.7027 0)
(382.761 -45.748 0)
(383.399 -45.8242 0)
(383.747 -45.573 0)
(167.575 111.3 0)
(161.385 15.418 0)
(174.952 3.5015 0)
(184.802 3.24015 0)
(192.206 -0.190866 0)
(197.61 -1.77999 0)
(200.102 -4.09292 0)
(201.128 -5.81719 0)
(201.915 -7.15131 0)
(202.705 -8.2645 0)
(203.575 -9.18198 0)
(204.455 -9.93757 0)
(205.305 -10.5537 0)
(206.111 -11.0479 0)
(206.889 -11.448 0)
(207.675 -11.7547 0)
(208.458 -12.0077 0)
(209.241 -12.2155 0)
(210.025 -12.4017 0)
(210.819 -12.576 0)
(211.624 -12.7553 0)
(212.448 -12.948 0)
(213.295 -13.1592 0)
(214.168 -13.3895 0)
(215.064 -13.6406 0)
(215.979 -13.9129 0)
(216.913 -14.2052 0)
(217.87 -14.5139 0)
(218.854 -14.8364 0)
(219.868 -15.1713 0)
(220.918 -15.5184 0)
(222.008 -15.877 0)
(223.147 -16.2457 0)
(224.34 -16.6234 0)
(225.595 -17.0103 0)
(226.919 -17.4092 0)
(228.318 -17.8223 0)
(229.8 -18.2531 0)
(231.37 -18.7052 0)
(233.036 -19.1838 0)
(234.801 -19.6931 0)
(236.67 -20.2379 0)
(238.648 -20.8225 0)
(240.741 -21.4531 0)
(242.956 -22.1376 0)
(245.302 -22.8848 0)
(247.786 -23.7021 0)
(250.417 -24.5954 0)
(253.209 -25.57 0)
(256.182 -26.6319 0)
(259.364 -27.7891 0)
(262.797 -29.0491 0)
(266.556 -30.4143 0)
(270.817 -31.8621 0)
(275.908 -33.319 0)
(282.223 -34.5664 0)
(290.047 -35.4554 0)
(298.103 -35.8719 0)
(305.52 -36.0497 0)
(312.018 -36.2573 0)
(317.69 -36.6176 0)
(322.591 -37.1248 0)
(327.006 -37.7537 0)
(331.094 -38.4999 0)
(334.699 -39.2249 0)
(338.027 -39.9446 0)
(341.186 -40.6699 0)
(343.987 -41.2839 0)
(346.467 -41.7824 0)
(348.78 -42.2203 0)
(350.95 -42.6197 0)
(352.92 -42.9584 0)
(354.711 -43.2346 0)
(356.356 -43.5031 0)
(357.883 -43.6865 0)
(359.307 -43.8834 0)
(360.655 -43.9603 0)
(361.913 -44.1003 0)
(363.111 -44.1553 0)
(364.221 -44.2995 0)
(365.286 -44.3499 0)
(366.274 -44.4786 0)
(367.227 -44.5163 0)
(368.119 -44.6144 0)
(368.985 -44.6283 0)
(369.792 -44.7005 0)
(370.572 -44.7218 0)
(371.306 -44.7769 0)
(372.011 -44.7947 0)
(372.669 -44.8351 0)
(373.291 -44.8668 0)
(373.879 -44.8901 0)
(374.443 -44.9108 0)
(374.988 -44.9121 0)
(375.51 -44.941 0)
(376.026 -44.9403 0)
(376.524 -44.9687 0)
(377.017 -44.9519 0)
(377.484 -44.9795 0)
(377.943 -44.9657 0)
(378.357 -45.0044 0)
(378.748 -44.9937 0)
(379.105 -45.0319 0)
(379.458 -45.0174 0)
(379.793 -45.0509 0)
(380.13 -45.0432 0)
(380.446 -45.08 0)
(380.741 -45.0789 0)
(380.986 -45.1049 0)
(381.176 -45.0908 0)
(381.284 -45.0877 0)
(381.302 -45.0579 0)
(381.237 -45.0232 0)
(381.138 -45.0028 0)
(381.101 -44.9654 0)
(381.213 -44.9587 0)
(381.54 -44.961 0)
(382.06 -45.0146 0)
(382.695 -45.055 0)
(383.333 -45.1238 0)
(383.677 -44.8686 0)
(167.318 111.287 0)
(161.465 15.1904 0)
(175.065 3.37771 0)
(184.888 3.2012 0)
(192.296 -0.201358 0)
(197.688 -1.77104 0)
(200.169 -4.07302 0)
(201.183 -5.79313 0)
(201.96 -7.12365 0)
(202.745 -8.2347 0)
(203.61 -9.15234 0)
(204.488 -9.90818 0)
(205.335 -10.5247 0)
(206.14 -11.0186 0)
(206.917 -11.4185 0)
(207.702 -11.7244 0)
(208.484 -11.9766 0)
(209.266 -12.1832 0)
(210.05 -12.3678 0)
(210.841 -12.54 0)
(211.645 -12.717 0)
(212.467 -12.9068 0)
(213.311 -13.1148 0)
(214.183 -13.3419 0)
(215.077 -13.5898 0)
(215.992 -13.8589 0)
(216.926 -14.1478 0)
(217.884 -14.4529 0)
(218.869 -14.7714 0)
(219.886 -15.1018 0)
(220.939 -15.4441 0)
(222.034 -15.7973 0)
(223.178 -16.1596 0)
(224.377 -16.5301 0)
(225.64 -16.9089 0)
(226.974 -17.2986 0)
(228.384 -17.7014 0)
(229.877 -18.1206 0)
(231.462 -18.5598 0)
(233.145 -19.0243 0)
(234.93 -19.5182 0)
(236.824 -20.0465 0)
(238.831 -20.6131 0)
(240.957 -21.2239 0)
(243.211 -21.8865 0)
(245.602 -22.6095 0)
(248.141 -23.4004 0)
(250.84 -24.2648 0)
(253.717 -25.2075 0)
(256.798 -26.2335 0)
(260.118 -27.3494 0)
(263.734 -28.5604 0)
(267.753 -29.858 0)
(272.395 -31.1945 0)
(277.913 -32.4671 0)
(284.514 -33.4505 0)
(292.041 -34.0986 0)
(299.471 -34.4254 0)
(306.284 -34.6364 0)
(312.291 -34.9194 0)
(317.616 -35.3439 0)
(322.446 -35.9195 0)
(326.799 -36.6085 0)
(330.722 -37.3388 0)
(334.454 -38.1444 0)
(337.841 -38.9304 0)
(340.841 -39.6355 0)
(343.65 -40.2852 0)
(346.282 -40.8656 0)
(348.631 -41.3439 0)
(350.742 -41.7481 0)
(352.717 -42.1036 0)
(354.58 -42.409 0)
(356.327 -42.6983 0)
(357.947 -42.9064 0)
(359.431 -43.1321 0)
(360.808 -43.26 0)
(362.082 -43.441 0)
(363.282 -43.5284 0)
(364.402 -43.6679 0)
(365.471 -43.737 0)
(366.474 -43.8554 0)
(367.434 -43.9147 0)
(368.341 -43.9941 0)
(369.201 -44.0415 0)
(370.011 -44.1016 0)
(370.78 -44.1535 0)
(371.517 -44.1833 0)
(372.21 -44.2244 0)
(372.872 -44.2368 0)
(373.492 -44.2829 0)
(374.095 -44.2738 0)
(374.662 -44.3048 0)
(375.22 -44.2829 0)
(375.745 -44.3214 0)
(376.27 -44.3019 0)
(376.766 -44.3452 0)
(377.258 -44.3368 0)
(377.713 -44.3996 0)
(378.148 -44.382 0)
(378.54 -44.4025 0)
(378.918 -44.3556 0)
(379.265 -44.3758 0)
(379.617 -44.3446 0)
(379.955 -44.378 0)
(380.302 -44.3658 0)
(380.627 -44.4033 0)
(380.934 -44.3971 0)
(381.188 -44.4239 0)
(381.387 -44.4074 0)
(381.5 -44.407 0)
(381.525 -44.374 0)
(381.464 -44.3393 0)
(381.37 -44.3182 0)
(381.335 -44.2802 0)
(381.449 -44.2727 0)
(381.78 -44.2753 0)
(382.304 -44.327 0)
(382.942 -44.3744 0)
(383.588 -44.4472 0)
(383.935 -44.1862 0)
(167.057 111.271 0)
(161.546 14.9587 0)
(175.177 3.25098 0)
(184.975 3.16059 0)
(192.388 -0.212952 0)
(197.766 -1.76139 0)
(200.236 -4.05014 0)
(201.237 -5.76587 0)
(202.005 -7.09361 0)
(202.783 -8.20313 0)
(203.644 -9.12108 0)
(204.519 -9.8772 0)
(205.364 -10.4941 0)
(206.168 -10.9877 0)
(206.943 -11.3873 0)
(207.728 -11.6926 0)
(208.508 -11.944 0)
(209.29 -12.1494 0)
(210.072 -12.3326 0)
(210.862 -12.503 0)
(211.663 -12.6776 0)
(212.482 -12.8646 0)
(213.325 -13.0694 0)
(214.194 -13.2931 0)
(215.087 -13.5376 0)
(216 -13.8035 0)
(216.934 -14.0889 0)
(217.892 -14.3901 0)
(218.878 -14.7044 0)
(219.898 -15.0303 0)
(220.953 -15.3674 0)
(222.051 -15.7147 0)
(223.2 -16.0703 0)
(224.405 -16.4332 0)
(225.675 -16.8034 0)
(227.016 -17.1834 0)
(228.435 -17.5753 0)
(229.94 -17.9822 0)
(231.537 -18.4078 0)
(233.235 -18.8571 0)
(235.039 -19.3345 0)
(236.955 -19.8448 0)
(238.987 -20.3918 0)
(241.145 -20.9812 0)
(243.435 -21.6199 0)
(245.869 -22.3164 0)
(248.459 -23.0778 0)
(251.223 -23.9094 0)
(254.181 -24.8152 0)
(257.366 -25.7989 0)
(260.821 -26.8655 0)
(264.619 -28.0145 0)
(268.896 -29.2229 0)
(273.861 -30.4259 0)
(279.658 -31.5129 0)
(286.353 -32.296 0)
(293.457 -32.7692 0)
(300.363 -33.0508 0)
(306.684 -33.3023 0)
(312.388 -33.6383 0)
(317.505 -34.1072 0)
(322.105 -34.6996 0)
(326.382 -35.3911 0)
(330.414 -36.1758 0)
(334.039 -36.9817 0)
(337.428 -37.7977 0)
(340.631 -38.5804 0)
(343.505 -39.285 0)
(346.064 -39.8936 0)
(348.455 -40.4131 0)
(350.686 -40.8586 0)
(352.735 -41.2482 0)
(354.627 -41.5969 0)
(356.383 -41.9476 0)
(358.014 -42.2299 0)
(359.516 -42.5144 0)
(360.887 -42.6627 0)
(362.139 -42.8243 0)
(363.316 -42.8894 0)
(364.418 -43.0052 0)
(365.467 -43.0777 0)
(366.458 -43.1834 0)
(367.411 -43.2539 0)
(368.312 -43.3176 0)
(369.158 -43.3942 0)
(369.958 -43.4448 0)
(370.719 -43.5209 0)
(371.456 -43.5326 0)
(372.146 -43.5991 0)
(372.811 -43.5986 0)
(373.433 -43.6614 0)
(374.046 -43.6303 0)
(374.618 -43.6703 0)
(375.188 -43.6321 0)
(375.72 -43.6764 0)
(376.257 -43.6404 0)
(376.758 -43.6832 0)
(377.251 -43.6584 0)
(377.684 -43.7075 0)
(378.095 -43.6781 0)
(378.481 -43.7145 0)
(378.873 -43.6766 0)
(379.231 -43.7037 0)
(379.589 -43.6712 0)
(379.924 -43.7114 0)
(380.263 -43.7002 0)
(380.581 -43.7396 0)
(380.882 -43.7288 0)
(381.129 -43.7539 0)
(381.323 -43.7341 0)
(381.431 -43.7347 0)
(381.452 -43.6966 0)
(381.386 -43.6633 0)
(381.287 -43.6357 0)
(381.249 -43.6042 0)
(381.365 -43.5941 0)
(381.7 -43.5949 0)
(382.228 -43.6435 0)
(382.87 -43.688 0)
(383.519 -43.759 0)
(383.867 -43.4991 0)
(166.791 111.249 0)
(161.623 14.7217 0)
(175.29 3.12126 0)
(185.062 3.11832 0)
(192.482 -0.226014 0)
(197.846 -1.75398 0)
(200.306 -4.0302 0)
(201.294 -5.74133 0)
(202.051 -7.06511 0)
(202.824 -8.17225 0)
(203.68 -9.09029 0)
(204.552 -9.84668 0)
(205.396 -10.464 0)
(206.198 -10.9573 0)
(206.972 -11.3566 0)
(207.756 -11.6613 0)
(208.535 -11.9117 0)
(209.316 -12.116 0)
(210.097 -12.2976 0)
(210.885 -12.4662 0)
(211.684 -12.6383 0)
(212.501 -12.8226 0)
(213.341 -13.0241 0)
(214.208 -13.2445 0)
(215.1 -13.4857 0)
(216.012 -13.7482 0)
(216.946 -14.0302 0)
(217.905 -14.3276 0)
(218.893 -14.6378 0)
(219.914 -14.959 0)
(220.973 -15.2911 0)
(222.076 -15.6328 0)
(223.229 -15.9819 0)
(224.441 -16.3373 0)
(225.718 -16.6992 0)
(227.068 -17.0697 0)
(228.498 -17.4509 0)
(230.014 -17.8458 0)
(231.626 -18.2578 0)
(233.34 -18.6922 0)
(235.163 -19.1534 0)
(237.101 -19.6459 0)
(239.162 -20.1736 0)
(241.351 -20.7417 0)
(243.68 -21.3568 0)
(246.159 -22.0269 0)
(248.805 -22.7587 0)
(251.637 -23.5569 0)
(254.681 -24.4247 0)
(257.974 -25.364 0)
(261.569 -26.3769 0)
(265.553 -27.4545 0)
(270.067 -28.5596 0)
(275.26 -29.6183 0)
(281.172 -30.5188 0)
(287.779 -31.1319 0)
(294.518 -31.4945 0)
(300.952 -31.7505 0)
(306.89 -32.0185 0)
(312.317 -32.3825 0)
(317.288 -32.8698 0)
(321.917 -33.4899 0)
(326.176 -34.22 0)
(330.089 -35.009 0)
(333.824 -35.8652 0)
(337.274 -36.7372 0)
(340.384 -37.5374 0)
(343.295 -38.2928 0)
(346.011 -38.9884 0)
(348.457 -39.5779 0)
(350.669 -40.0808 0)
(352.703 -40.517 0)
(354.589 -40.8979 0)
(356.329 -41.2519 0)
(357.926 -41.5167 0)
(359.39 -41.7866 0)
(360.741 -41.9329 0)
(362.003 -42.116 0)
(363.199 -42.2002 0)
(364.328 -42.3423 0)
(365.404 -42.4324 0)
(366.429 -42.5382 0)
(367.403 -42.6129 0)
(368.315 -42.685 0)
(369.167 -42.7835 0)
(369.984 -42.8242 0)
(370.763 -42.9007 0)
(371.519 -42.9011 0)
(372.216 -42.9832 0)
(372.889 -42.9788 0)
(373.512 -43.0511 0)
(374.123 -43.0153 0)
(374.685 -43.0684 0)
(375.243 -43.03 0)
(375.761 -43.0824 0)
(376.286 -43.0409 0)
(376.778 -43.0819 0)
(377.284 -43.0379 0)
(377.772 -43.0602 0)
(378.274 -43.0139 0)
(378.718 -43.0638 0)
(379.13 -43.0406 0)
(379.497 -43.0716 0)
(379.861 -43.0319 0)
(380.2 -43.0605 0)
(380.547 -43.0356 0)
(380.87 -43.0617 0)
(381.176 -43.0389 0)
(381.424 -43.0553 0)
(381.615 -43.0287 0)
(381.714 -43.0274 0)
(381.721 -42.9866 0)
(381.639 -42.955 0)
(381.524 -42.926 0)
(381.471 -42.8965 0)
(381.578 -42.8847 0)
(381.91 -42.8881 0)
(382.442 -42.9365 0)
(383.089 -42.9797 0)
(383.743 -43.0557 0)
(384.095 -42.7946 0)
(166.52 111.224 0)
(161.699 14.4803 0)
(175.402 2.98858 0)
(185.15 3.07435 0)
(192.577 -0.240243 0)
(197.928 -1.746 0)
(200.375 -4.00729 0)
(201.35 -5.71359 0)
(202.097 -7.03425 0)
(202.864 -8.13961 0)
(203.715 -9.05788 0)
(204.584 -9.81452 0)
(205.425 -10.4322 0)
(206.226 -10.9252 0)
(206.999 -11.3243 0)
(207.782 -11.6283 0)
(208.561 -11.8779 0)
(209.34 -12.0812 0)
(210.12 -12.2614 0)
(210.907 -12.4281 0)
(211.703 -12.598 0)
(212.517 -12.7794 0)
(213.354 -12.9776 0)
(214.219 -13.1946 0)
(215.109 -13.4324 0)
(216.02 -13.6916 0)
(216.953 -13.97 0)
(217.912 -14.2634 0)
(218.901 -14.5692 0)
(219.924 -14.8857 0)
(220.985 -15.2125 0)
(222.091 -15.5481 0)
(223.249 -15.8904 0)
(224.466 -16.2379 0)
(225.75 -16.5909 0)
(227.107 -16.9514 0)
(228.546 -17.3213 0)
(230.073 -17.7035 0)
(231.697 -18.1014 0)
(233.425 -18.52 0)
(235.265 -18.9637 0)
(237.224 -19.4371 0)
(239.309 -19.9439 0)
(241.529 -20.489 0)
(243.893 -21.0785 0)
(246.415 -21.7197 0)
(249.113 -22.419 0)
(252.01 -23.1801 0)
(255.135 -24.005 0)
(258.53 -24.8935 0)
(262.254 -25.8432 0)
(266.4 -26.837 0)
(271.091 -27.8293 0)
(276.41 -28.7463 0)
(282.342 -29.4815 0)
(288.755 -29.9589 0)
(295.158 -30.2541 0)
(301.283 -30.4924 0)
(307.008 -30.768 0)
(312.284 -31.1588 0)
(317.152 -31.696 0)
(321.629 -32.3463 0)
(325.828 -33.098 0)
(329.802 -33.9507 0)
(333.448 -34.8076 0)
(336.868 -35.6804 0)
(340.131 -36.5837 0)
(343.093 -37.3958 0)
(345.773 -38.1025 0)
(348.23 -38.7195 0)
(350.482 -39.254 0)
(352.524 -39.6965 0)
(354.39 -40.0709 0)
(356.12 -40.4243 0)
(357.752 -40.7009 0)
(359.296 -40.9961 0)
(360.741 -41.1654 0)
(362.077 -41.3903 0)
(363.31 -41.5064 0)
(364.468 -41.6937 0)
(365.574 -41.8003 0)
(366.615 -41.9306 0)
(367.592 -42.0184 0)
(368.499 -42.1065 0)
(369.356 -42.1972 0)
(370.179 -42.2318 0)
(370.96 -42.3061 0)
(371.706 -42.3159 0)
(372.4 -42.4016 0)
(373.072 -42.3956 0)
(373.702 -42.4621 0)
(374.319 -42.4248 0)
(374.888 -42.4758 0)
(375.454 -42.4346 0)
(375.981 -42.4802 0)
(376.511 -42.4354 0)
(377 -42.4759 0)
(377.485 -42.4427 0)
(377.924 -42.4911 0)
(378.354 -42.4458 0)
(378.733 -42.4659 0)
(379.11 -42.416 0)
(379.459 -42.4355 0)
(379.821 -42.3917 0)
(380.167 -42.4122 0)
(380.529 -42.3752 0)
(380.868 -42.3886 0)
(381.195 -42.3548 0)
(381.461 -42.3627 0)
(381.675 -42.3296 0)
(381.798 -42.3281 0)
(381.829 -42.2878 0)
(381.766 -42.2599 0)
(381.667 -42.2336 0)
(381.63 -42.2074 0)
(381.748 -42.1987 0)
(382.086 -42.2109 0)
(382.623 -42.2621 0)
(383.276 -42.3092 0)
(383.932 -42.3851 0)
(384.282 -42.1233 0)
(166.246 111.194 0)
(161.772 14.2336 0)
(175.514 2.85287 0)
(185.239 3.02867 0)
(192.674 -0.256041 0)
(198.011 -1.74048 0)
(200.447 -3.9873 0)
(201.41 -5.68855 0)
(202.146 -7.00486 0)
(202.906 -8.10759 0)
(203.752 -9.02589 0)
(204.618 -9.7828 0)
(205.457 -10.4008 0)
(206.257 -10.8936 0)
(207.029 -11.2924 0)
(207.81 -11.5958 0)
(208.588 -11.8445 0)
(209.367 -12.0467 0)
(210.146 -12.2254 0)
(210.93 -12.3903 0)
(211.725 -12.5578 0)
(212.535 -12.7364 0)
(213.371 -12.9313 0)
(214.233 -13.1448 0)
(215.122 -13.3792 0)
(216.032 -13.6351 0)
(216.965 -13.9098 0)
(217.924 -14.1993 0)
(218.915 -14.5009 0)
(219.939 -14.8127 0)
(221.003 -15.1342 0)
(222.114 -15.464 0)
(223.277 -15.7995 0)
(224.5 -16.1393 0)
(225.791 -16.4836 0)
(227.157 -16.8343 0)
(228.605 -17.1932 0)
(230.144 -17.5629 0)
(231.781 -17.9468 0)
(233.525 -18.3498 0)
(235.383 -18.7763 0)
(237.364 -19.2308 0)
(239.475 -19.7168 0)
(241.725 -20.239 0)
(244.127 -20.8029 0)
(246.695 -21.4154 0)
(249.448 -22.0818 0)
(252.412 -22.8051 0)
(255.62 -23.5856 0)
(259.116 -24.4205 0)
(262.963 -25.3024 0)
(267.249 -26.207 0)
(272.063 -27.083 0)
(277.443 -27.8595 0)
(283.339 -28.4463 0)
(289.532 -28.8129 0)
(295.663 -29.052 0)
(301.511 -29.2696 0)
(306.979 -29.5638 0)
(312.042 -29.9801 0)
(316.748 -30.519 0)
(321.187 -31.183 0)
(325.348 -31.9429 0)
(329.239 -32.768 0)
(332.973 -33.6746 0)
(336.45 -34.5921 0)
(339.618 -35.4623 0)
(342.596 -36.2957 0)
(345.372 -37.062 0)
(347.896 -37.727 0)
(350.185 -38.3005 0)
(352.287 -38.7837 0)
(354.236 -39.1945 0)
(356.051 -39.5755 0)
(357.748 -39.8909 0)
(359.333 -40.2533 0)
(360.796 -40.5025 0)
(362.147 -40.8021 0)
(363.384 -40.9295 0)
(364.523 -41.1114 0)
(365.593 -41.1652 0)
(366.587 -41.274 0)
(367.525 -41.3411 0)
(368.418 -41.4488 0)
(369.28 -41.5269 0)
(370.108 -41.574 0)
(370.885 -41.6475 0)
(371.624 -41.6821 0)
(372.315 -41.7716 0)
(372.988 -41.7757 0)
(373.622 -41.8351 0)
(374.244 -41.8031 0)
(374.82 -41.8548 0)
(375.393 -41.8182 0)
(375.934 -41.8605 0)
(376.483 -41.8154 0)
(377 -41.8471 0)
(377.515 -41.7993 0)
(377.967 -41.8334 0)
(378.388 -41.797 0)
(378.787 -41.8234 0)
(379.196 -41.7757 0)
(379.569 -41.7973 0)
(379.939 -41.7578 0)
(380.284 -41.7789 0)
(380.639 -41.7397 0)
(380.967 -41.751 0)
(381.282 -41.7137 0)
(381.537 -41.7188 0)
(381.739 -41.6838 0)
(381.849 -41.6848 0)
(381.865 -41.6436 0)
(381.79 -41.6165 0)
(381.68 -41.5849 0)
(381.632 -41.5594 0)
(381.747 -41.5446 0)
(382.089 -41.5524 0)
(382.637 -41.5984 0)
(383.297 -41.6356 0)
(383.953 -41.7025 0)
(384.304 -41.4414 0)
(165.967 111.16 0)
(161.845 13.9823 0)
(175.625 2.71415 0)
(185.328 2.98126 0)
(192.774 -0.273106 0)
(198.096 -1.73455 0)
(200.519 -3.96433 0)
(201.468 -5.6603 0)
(202.194 -6.97316 0)
(202.947 -8.07384 0)
(203.788 -8.99226 0)
(204.651 -9.74939 0)
(205.488 -10.3678 0)
(206.286 -10.8603 0)
(207.057 -11.2588 0)
(207.837 -11.5616 0)
(208.614 -11.8095 0)
(209.392 -12.0106 0)
(210.17 -12.188 0)
(210.952 -12.3512 0)
(211.744 -12.5165 0)
(212.552 -12.6922 0)
(213.384 -12.8838 0)
(214.244 -13.0938 0)
(215.13 -13.3247 0)
(216.039 -13.5771 0)
(216.971 -13.8481 0)
(217.931 -14.1336 0)
(218.922 -14.4306 0)
(219.948 -14.7375 0)
(221.014 -15.0536 0)
(222.127 -15.377 0)
(223.294 -15.7054 0)
(224.523 -16.0372 0)
(225.82 -16.3724 0)
(227.193 -16.7128 0)
(228.65 -17.06 0)
(230.199 -17.4167 0)
(231.848 -17.7858 0)
(233.605 -18.1724 0)
(235.479 -18.5806 0)
(237.479 -19.0149 0)
(239.613 -19.4787 0)
(241.891 -19.9762 0)
(244.327 -20.5124 0)
(246.936 -21.0935 0)
(249.74 -21.7242 0)
(252.766 -22.4058 0)
(256.047 -23.1373 0)
(259.629 -23.9126 0)
(263.575 -24.7201 0)
(267.959 -25.5301 0)
(272.849 -26.2904 0)
(278.248 -26.9368 0)
(284.07 -27.4028 0)
(290.049 -27.6851 0)
(295.912 -27.8806 0)
(301.522 -28.0905 0)
(306.775 -28.3921 0)
(311.688 -28.8068 0)
(316.311 -29.34 0)
(320.653 -29.9882 0)
(324.788 -30.737 0)
(328.739 -31.5787 0)
(332.421 -32.471 0)
(335.912 -33.3976 0)
(339.233 -34.319 0)
(342.291 -35.1938 0)
(345.089 -35.9975 0)
(347.679 -36.7181 0)
(350.066 -37.3614 0)