/*--------------------------------*- C++ -*----------------------------------*\
| =========                 |                                                 |
| \\      /  F ield         | OpenFOAM: The Open Source CFD Toolbox           |
|  \\    /   O peration     | Version:  2412                                  |
|   \\  /    A nd           | Website:  www.openfoam.com                      |
|    \\/     M anipulation  |                                                 |
\*---------------------------------------------------------------------------*/
FoamFile
{
    version     2.0;
    format      ascii;
    arch        "LSB;label=32;scalar=64";
    class       volScalarField;
    location    "0.051";
    object      rho;
}
// * * * * * * * * * * * * * * * * * * * * * * * * * * * * * * * * * * * * * //

dimensions      [1 -3 0 0 0 0 0];

internalField   nonuniform List<scalar> 
9922
(
0.0555333
0.0435366
0.0431231
0.0433294
0.0433924
0.0434603
0.0434975
0.0434984
0.0434727
0.0434249
0.0433608
0.0432883
0.0432164
0.0431494
0.0430872
0.0430266
0.0429635
0.042895
0.0428197
0.0427372
0.0426481
0.0425525
0.0424504
0.0423416
0.042226
0.0421035
0.0419737
0.0418357
0.0416888
0.0415323
0.0413655
0.0411878
0.0409982
0.0407955
0.0405783
0.0403445
0.0400919
0.0398177
0.0395182
0.0391894
0.0388261
0.0384214
0.0379668
0.0374506
0.0368571
0.0361755
0.0354198
0.0346259
0.0338334
0.0330758
0.0323671
0.031704
0.0310798
0.0304865
0.0299189
0.0293746
0.0288527
0.0283444
0.0278372
0.0273338
0.0268498
0.0263907
0.0259528
0.0255331
0.0251331
0.0247561
0.0244055
0.0240826
0.0237875
0.0235258
0.0232937
0.0230835
0.0228897
0.0227112
0.022545
0.0223931
0.0222508
0.0221183
0.0219926
0.0218723
0.021759
0.0216511
0.0215503
0.0214531
0.0213606
0.0212708
0.0211851
0.0211026
0.021024
0.0209484
0.0208761
0.0208068
0.0207403
0.0206766
0.0206157
0.0205574
0.0205011
0.0204468
0.0203949
0.0203456
0.020298
0.0202519
0.0202066
0.020163
0.0201214
0.0200826
0.0200464
0.0200134
0.0199824
0.0199532
0.0199228
0.01989
0.0198526
0.0198134
0.0197734
0.0197295
0.0196838
0.0196372
0.0195957
0.0195595
0.0195197
0.0555439
0.0435285
0.0431086
0.043319
0.0433849
0.0434545
0.0434926
0.0434937
0.0434681
0.0434203
0.0433563
0.043284
0.0432125
0.043146
0.0430842
0.043024
0.042961
0.0428925
0.0428168
0.0427341
0.0426446
0.0425487
0.0424464
0.0423373
0.0422215
0.0420987
0.0419684
0.04183
0.0416826
0.0415256
0.0413584
0.0411801
0.0409897
0.0407859
0.0405673
0.0403317
0.040077
0.0398001
0.0394976
0.039165
0.0387971
0.0383868
0.0379256
0.0374019
0.0368017
0.0361191
0.0353716
0.034594
0.0338247
0.0330932
0.0324054
0.0317596
0.0311502
0.0305687
0.0300085
0.0294637
0.0289331
0.0284242
0.0279342
0.0274491
0.0269652
0.0264895
0.026033
0.0256032
0.0252016
0.0248267
0.0244784
0.0241569
0.0238616
0.023593
0.0233521
0.0231338
0.0229336
0.0227511
0.0225821
0.0224278
0.0222828
0.0221477
0.0220196
0.0218975
0.0217832
0.021675
0.0215739
0.021476
0.0213827
0.021292
0.021206
0.021123
0.0210441
0.0209681
0.0208955
0.0208258
0.0207588
0.0206945
0.020633
0.0205738
0.0205165
0.0204614
0.0204088
0.0203586
0.02031
0.020263
0.0202171
0.020173
0.0201308
0.0200914
0.0200547
0.0200212
0.0199897
0.0199601
0.0199292
0.0198958
0.0198578
0.0198178
0.0197767
0.0197315
0.0196845
0.0196359
0.0195931
0.0195561
0.0195141
0.0555543
0.0435208
0.043094
0.0433085
0.0433773
0.0434486
0.0434876
0.0434889
0.0434633
0.0434155
0.0433517
0.0432797
0.0432086
0.0431426
0.0430812
0.0430213
0.0429584
0.0428899
0.042814
0.042731
0.0426412
0.042545
0.0424424
0.0423331
0.0422169
0.0420938
0.0419631
0.0418242
0.0416764
0.041519
0.0413513
0.0411724
0.0409812
0.0407764
0.0405564
0.0403191
0.0400622
0.0397828
0.0394772
0.0391409
0.0387685
0.0383529
0.0378856
0.0373554
0.0367503
0.0360687
0.0353313
0.0345727
0.033828
0.0331164
0.0324446
0.0318131
0.0312159
0.0306458
0.0300968
0.0295644
0.0290407
0.0285215
0.0280174
0.0275361
0.0270684
0.0266066
0.0261513
0.0257088
0.0252876
0.0248949
0.0245336
0.0242045
0.0239093
0.0236386
0.0233885
0.0231606
0.0229541
0.0227676
0.0225958
0.0224404
0.0222944
0.0221589
0.0220296
0.0219064
0.0217902
0.02168
0.0215766
0.021477
0.0213825
0.0212914
0.0212055
0.0211228
0.0210443
0.0209689
0.0208973
0.0208284
0.0207623
0.0206989
0.0206382
0.0205797
0.020523
0.0204687
0.020417
0.0203673
0.0203191
0.0202726
0.0202278
0.0201847
0.0201432
0.0201042
0.020068
0.0200353
0.0200051
0.0199769
0.0199473
0.0199152
0.0198783
0.0198396
0.0197995
0.0197544
0.0197071
0.0196585
0.0196148
0.0195767
0.0195337
0.0555643
0.0435135
0.0430793
0.0432979
0.0433697
0.0434425
0.0434825
0.0434839
0.0434585
0.0434107
0.043347
0.0432754
0.0432047
0.0431391
0.0430782
0.0430186
0.0429559
0.0428872
0.0428112
0.0427278
0.0426377
0.0425412
0.0424384
0.0423288
0.0422124
0.0420889
0.0419578
0.0418185
0.0416702
0.0415123
0.0413441
0.0411647
0.0409727
0.0407669
0.0405456
0.0403066
0.0400477
0.0397657
0.0394571
0.0391172
0.0387405
0.0383199
0.037847
0.0373113
0.0367028
0.0360246
0.0352987
0.0345579
0.0338325
0.0331373
0.0324826
0.0318658
0.0312777
0.0307116
0.0301666
0.029642
0.029134
0.0286334
0.0281315
0.0276335
0.0271523
0.0266913
0.0262468
0.0258155
0.0253993
0.0250024
0.0246287
0.0242813
0.0239622
0.0236784
0.0234268
0.0232019
0.0229954
0.0228052
0.0226282
0.0224671
0.0223159
0.0221763
0.0220438
0.0219188
0.0218013
0.0216905
0.021587
0.0214877
0.0213939
0.0213035
0.0212179
0.0211348
0.0210554
0.0209791
0.0209066
0.0208369
0.0207699
0.0207057
0.0206441
0.0205846
0.0205271
0.0204722
0.0204199
0.0203694
0.0203203
0.0202732
0.020228
0.0201846
0.0201425
0.0201028
0.020066
0.0200331
0.0200031
0.0199752
0.0199456
0.0199132
0.0198762
0.0198376
0.0197977
0.0197528
0.0197058
0.0196584
0.0196167
0.0195804
0.0195402
0.0555739
0.0435065
0.0430645
0.0432873
0.0433619
0.0434364
0.0434772
0.0434788
0.0434535
0.0434058
0.0433423
0.0432709
0.0432007
0.0431356
0.0430751
0.0430158
0.0429533
0.0428846
0.0428083
0.0427246
0.0426342
0.0425374
0.0424343
0.0423245
0.0422078
0.042084
0.0419525
0.0418127
0.041664
0.0415056
0.041337
0.041157
0.0409643
0.0407575
0.0405349
0.0402943
0.0400333
0.0397488
0.0394372
0.0390939
0.038713
0.0382878
0.0378101
0.0372699
0.0366601
0.0359865
0.0352722
0.0345481
0.03384
0.0331634
0.0325251
0.0319192
0.0313424
0.0307895
0.030253
0.0297279
0.0292151
0.0287196
0.0282363
0.0277543
0.0272715
0.0267939
0.0263321
0.0258932
0.0254781
0.0250858
0.0247169
0.0243717
0.024049
0.0237551
0.0234936
0.0232562
0.0230396
0.0228433
0.0226631
0.0224999
0.022347
0.022206
0.0220722
0.0219459
0.0218269
0.0217137
0.0216074
0.021505
0.021409
0.0213169
0.0212304
0.0211467
0.0210674
0.0209912
0.0209192
0.02085
0.0207838
0.0207202
0.0206591
0.0205999
0.0205432
0.020489
0.0204369
0.0203865
0.0203376
0.0202907
0.0202458
0.0202024
0.0201604
0.0201205
0.0200832
0.0200499
0.0200197
0.0199919
0.0199622
0.0199297
0.019892
0.0198524
0.0198114
0.0197658
0.0197175
0.0196684
0.0196257
0.019588
0.0195469
0.0555833
0.0435
0.0430496
0.0432765
0.043354
0.0434301
0.0434718
0.0434736
0.0434485
0.0434008
0.0433374
0.0432664
0.0431966
0.0431321
0.043072
0.0430131
0.0429507
0.0428819
0.0428054
0.0427213
0.0426306
0.0425336
0.0424302
0.0423202
0.0422032
0.0420791
0.0419473
0.041807
0.0416578
0.041499
0.0413298
0.0411493
0.0409559
0.0407482
0.0405243
0.0402821
0.0400191
0.0397323
0.0394178
0.0390711
0.0386863
0.038257
0.0377751
0.0372316
0.0366214
0.0359533
0.035251
0.0345436
0.033854
0.0331991
0.0325783
0.0319873
0.0314224
0.0308776
0.0303491
0.0298332
0.0293227
0.0288162
0.0283229
0.0278472
0.0273809
0.0269175
0.0264565
0.0260044
0.0255698
0.0251606
0.0247805
0.0244308
0.0241129
0.0238172
0.0235411
0.0232904
0.0230666
0.0228654
0.0226811
0.022514
0.0223581
0.022215
0.02208
0.021953
0.0218332
0.0217188
0.0216109
0.0215073
0.0214105
0.0213178
0.0212308
0.0211467
0.021067
0.0209905
0.0209181
0.0208484
0.0207818
0.0207177
0.0206559
0.0205964
0.0205397
0.0204856
0.0204332
0.0203824
0.0203336
0.0202871
0.0202425
0.0201994
0.0201576
0.0201178
0.0200807
0.0200475
0.0200174
0.0199899
0.0199608
0.019929
0.0198919
0.019853
0.0198129
0.0197687
0.0197219
0.019674
0.0196315
0.0195951
0.0195577
0.0555921
0.0434937
0.0430347
0.0432656
0.043346
0.0434237
0.0434663
0.0434683
0.0434432
0.0433957
0.0433325
0.0432618
0.0431925
0.0431285
0.0430689
0.0430103
0.042948
0.0428792
0.0428024
0.0427181
0.042627
0.0425297
0.0424261
0.0423158
0.0421987
0.0420742
0.041942
0.0418013
0.0416516
0.0414924
0.0413227
0.0411416
0.0409475
0.0407389
0.0405138
0.04027
0.0400051
0.039716
0.0393988
0.0390488
0.0386606
0.0382276
0.0377422
0.0371961
0.0365865
0.0359248
0.0352355
0.0345462
0.0338768
0.0332377
0.0326265
0.0320447
0.0314869
0.030947
0.0304243
0.029918
0.0294235
0.0289323
0.0284383
0.0279472
0.0274694
0.0270082
0.0265596
0.0261199
0.0256911
0.0252772
0.0248826
0.0245122
0.0241711
0.0238635
0.0235898
0.0233465
0.0231227
0.0229174
0.022728
0.0225555
0.0223947
0.0222475
0.0221095
0.0219809
0.02186
0.0217447
0.0216362
0.0215322
0.021435
0.0213416
0.0212537
0.0211686
0.0210884
0.0210113
0.0209384
0.020868
0.0208006
0.0207354
0.0206728
0.0206127
0.0205556
0.0205005
0.0204467
0.0203951
0.020346
0.0202993
0.020254
0.02021
0.0201675
0.0201273
0.0200897
0.0200557
0.0200249
0.0199967
0.0199676
0.0199359
0.0198986
0.0198588
0.0198174
0.0197719
0.0197234
0.0196742
0.0196295
0.0195918
0.0195529
0.0556006
0.0434879
0.0430197
0.0432547
0.043338
0.0434171
0.0434606
0.0434628
0.0434379
0.0433904
0.0433275
0.0432572
0.0431883
0.0431249
0.0430657
0.0430074
0.0429453
0.0428764
0.0427994
0.0427148
0.0426234
0.0425258
0.0424219
0.0423115
0.0421941
0.0420694
0.0419368
0.0417956
0.0416455
0.0414857
0.0413156
0.0411339
0.0409392
0.0407297
0.0405034
0.0402582
0.0399914
0.0397001
0.0393802
0.0390273
0.0386359
0.0381997
0.0377113
0.0371631
0.036555
0.0359008
0.0352252
0.0345525
0.0338989
0.033271
0.0326723
0.0321031
0.0315563
0.0310268
0.0305102
0.0300035
0.029507
0.0290238
0.0285487
0.0280724
0.0275929
0.0271155
0.0266506
0.0262048
0.0257789
0.0253722
0.0249847
0.0246173
0.0242692
0.0239487
0.0236619
0.0234008
0.0231653
0.0229524
0.0227582
0.0225823
0.022419
0.0222697
0.02213
0.0219996
0.0218771
0.0217599
0.0216494
0.0215431
0.0214436
0.0213482
0.0212587
0.0211725
0.0210916
0.0210139
0.0209406
0.02087
0.0208024
0.0207372
0.0206751
0.0206156
0.0205585
0.0205032
0.0204498
0.0203991
0.020351
0.0203048
0.0202596
0.0202159
0.0201739
0.0201343
0.0200973
0.0200636
0.0200327
0.0200045
0.0199758
0.0199453
0.0199094
0.0198714
0.0198315
0.019787
0.019739
0.0196906
0.0196464
0.0196087
0.0195693
0.0556085
0.0434825
0.0430047
0.0432436
0.0433298
0.0434105
0.0434548
0.0434571
0.0434325
0.0433851
0.0433224
0.0432524
0.0431841
0.0431212
0.0430625
0.0430046
0.0429426
0.0428736
0.0427964
0.0427114
0.0426197
0.0425218
0.0424178
0.0423071
0.0421895
0.0420645
0.0419315
0.04179
0.0416394
0.0414791
0.0413085
0.0411262
0.0409309
0.0407205
0.0404932
0.0402465
0.039978
0.0396845
0.0393622
0.0390065
0.0386123
0.0381733
0.0376822
0.0371327
0.0365275
0.0358824
0.0352202
0.0345621
0.0339232
0.0333099
0.0327268
0.0321691
0.0316337
0.0311165
0.03061
0.0301113
0.0296153
0.0291216
0.0286383
0.028169
0.0277066
0.0272441
0.0267807
0.0263221
0.025877
0.0254539
0.0250574
0.0246889
0.0243482
0.0240278
0.0237223
0.0234466
0.0232048
0.0229873
0.0227883
0.022607
0.0224392
0.0222859
0.022144
0.0220123
0.0218898
0.0217731
0.0216633
0.0215573
0.0214579
0.0213624
0.0212731
0.0211871
0.0211057
0.0210271
0.0209525
0.0208804
0.0208115
0.0207453
0.0206826
0.0206224
0.0205641
0.0205076
0.020454
0.0204033
0.0203547
0.0203075
0.0202613
0.0202169
0.0201745
0.0201344
0.0200969
0.0200626
0.020031
0.020002
0.0199728
0.0199418
0.0199058
0.0198678
0.0198276
0.0197827
0.0197338
0.0196849
0.0196406
0.0196034
0.0195646
0.055616
0.0434775
0.0429896
0.0432325
0.0433215
0.0434037
0.0434488
0.0434514
0.0434269
0.0433797
0.0433172
0.0432477
0.0431799
0.0431175
0.0430593
0.0430017
0.0429398
0.0428708
0.0427933
0.042708
0.042616
0.0425178
0.0424136
0.0423027
0.0421849
0.0420596
0.0419263
0.0417843
0.0416333
0.0414725
0.0413014
0.0411186
0.0409226
0.0407114
0.040483
0.040235
0.0399648
0.0396694
0.0393448
0.0389866
0.0385899
0.0381483
0.0376548
0.0371049
0.036504
0.0358684
0.0352195
0.034576
0.0339533
0.0333569
0.0327878
0.0322395
0.0317091
0.031193
0.0306906
0.0302016
0.0297209
0.0292411
0.0287569
0.0282732
0.0277998
0.0273401
0.0268897
0.0264448
0.0260066
0.0255788
0.0251664
0.0247755
0.0244131
0.0240841
0.0237908
0.0235206
0.0232726
0.0230476
0.0228424
0.0226557
0.022483
0.0223254
0.0221796
0.0220447
0.0219196
0.0218006
0.0216885
0.0215801
0.021478
0.0213802
0.021289
0.0212014
0.0211186
0.0210387
0.0209628
0.0208898
0.0208205
0.0207544
0.0206917
0.0206312
0.0205725
0.0205163
0.0204632
0.0204125
0.0203633
0.0203157
0.0202696
0.0202253
0.0201826
0.020142
0.020104
0.0200693
0.0200377
0.0200087
0.0199792
0.0199478
0.0199115
0.019873
0.0198323
0.0197872
0.0197376
0.019688
0.0196421
0.0196034
0.0195638
0.0556228
0.0434729
0.0429745
0.0432213
0.0433131
0.0433967
0.0434427
0.0434455
0.0434212
0.0433741
0.0433119
0.0432428
0.0431756
0.0431137
0.043056
0.0429987
0.042937
0.0428679
0.0427902
0.0427046
0.0426123
0.0425138
0.0424093
0.0422983
0.0421803
0.0420547
0.0419211
0.0417787
0.0416272
0.041466
0.0412943
0.041111
0.0409143
0.0407024
0.0404729
0.0402237
0.039952
0.0396546
0.0393279
0.0389676
0.0385685
0.0381246
0.0376292
0.0370799
0.0364839
0.0358578
0.0352222
0.0345961
0.0339887
0.0334039
0.0328414
0.032302
0.0317826
0.0312752
0.0307774
0.0302882
0.0298072
0.0293361
0.0288705
0.0284017
0.0279273
0.0274525
0.0269867
0.0265362
0.0261024
0.0256839
0.0252806
0.0248933
0.0245224
0.0241737
0.023858
0.0235726
0.0233146
0.0230815
0.0228704
0.0226787
0.0225024
0.0223413
0.0221924
0.0220542
0.0219267
0.0218055
0.0216928
0.0215839
0.0214821
0.0213841
0.0212924
0.021204
0.0211202
0.0210393
0.0209624
0.0208886
0.0208189
0.0207525
0.0206892
0.0206278
0.0205687
0.0205126
0.0204594
0.0204082
0.0203584
0.0203105
0.0202645
0.0202203
0.0201774
0.0201366
0.0200983
0.0200636
0.020032
0.020003
0.0199734
0.0199418
0.0199052
0.0198666
0.0198265
0.0197829
0.0197348
0.0196871
0.0196417
0.0196034
0.0195637
0.0556291
0.0434687
0.0429594
0.0432099
0.0433046
0.0433896
0.0434364
0.0434394
0.0434154
0.0433685
0.0433065
0.0432379
0.0431712
0.0431099
0.0430527
0.0429957
0.0429342
0.042865
0.0427871
0.0427011
0.0426085
0.0425098
0.0424051
0.0422938
0.0421756
0.0420499
0.0419159
0.0417732
0.0416212
0.0414594
0.0412872
0.0411034
0.0409061
0.0406934
0.040463
0.0402125
0.0399394
0.0396403
0.0393117
0.0389493
0.0385481
0.038102
0.0376052
0.0370572
0.0364665
0.0358505
0.03523
0.0346181
0.0340205
0.0334455
0.0328938
0.0323655
0.0318574
0.0313653
0.0308799
0.0303982
0.0299171
0.0294365
0.0289634
0.0285016
0.0280447
0.0275852
0.0271221
0.0266601
0.0262074
0.025773
0.0253623
0.0249765
0.0246147
0.0242709
0.0239391
0.0236407
0.023375
0.023136
0.022919
0.0227211
0.0225394
0.0223733
0.0222206
0.0220797
0.0219505
0.0218288
0.0217166
0.0216086
0.021507
0.0214086
0.0213154
0.0212255
0.0211402
0.0210583
0.0209804
0.0209062
0.020836
0.020769
0.0207045
0.0206425
0.0205834
0.0205273
0.0204732
0.0204209
0.0203707
0.020323
0.0202774
0.0202334
0.0201906
0.0201499
0.020112
0.0200775
0.0200462
0.0200175
0.0199881
0.0199565
0.0199193
0.0198794
0.0198379
0.0197931
0.0197438
0.0196952
0.0196491
0.0196115
0.0195721
0.0556344
0.0434649
0.0429443
0.0431985
0.0432959
0.0433823
0.0434299
0.0434332
0.0434094
0.0433627
0.0433011
0.0432329
0.0431668
0.0431061
0.0430493
0.0429927
0.0429313
0.0428621
0.0427839
0.0426976
0.0426046
0.0425057
0.0424008
0.0422894
0.042171
0.042045
0.0419108
0.0417676
0.0416152
0.0414529
0.0412802
0.0410958
0.0408979
0.0406844
0.0404531
0.0402016
0.039927
0.0396264
0.039296
0.0389318
0.0385286
0.0380805
0.037583
0.0370371
0.0364535
0.0358497
0.0352414
0.03464
0.0340556
0.0334959
0.0329584
0.0324421
0.0319393
0.0314467
0.0309642
0.0304921
0.0300259
0.0295585
0.0290852
0.0286102
0.0281426
0.0276858
0.0272357
0.0267886
0.0263442
0.0259058
0.025479
0.0250706
0.0246885
0.0243392
0.0240222
0.023722
0.0234468
0.0231979
0.022973
0.0227691
0.0225819
0.0224107
0.0222526
0.0221066
0.021972
0.0218453
0.0217288
0.0216171
0.0215126
0.0214118
0.0213166
0.0212254
0.0211394
0.0210571
0.0209791
0.0209048
0.0208343
0.0207667
0.0207017
0.0206398
0.020581
0.0205245
0.0204692
0.0204161
0.0203658
0.0203181
0.020272
0.0202274
0.0201842
0.0201433
0.0201054
0.020071
0.0200399
0.0200117
0.0199832
0.019953
0.0199171
0.0198785
0.0198377
0.0197927
0.019743
0.0196932
0.0196468
0.0196086
0.0195702
0.0556393
0.0434615
0.0429293
0.0431871
0.0432872
0.0433749
0.0434233
0.0434268
0.0434034
0.0433568
0.0432955
0.0432278
0.0431624
0.0431022
0.0430459
0.0429896
0.0429284
0.0428591
0.0427807
0.0426941
0.0426008
0.0425016
0.0423964
0.0422849
0.0421663
0.0420401
0.0419056
0.0417621
0.0416092
0.0414465
0.0412732
0.0410882
0.0408897
0.0406755
0.0404434
0.0401907
0.0399149
0.0396129
0.0392809
0.0389149
0.0385098
0.0380601
0.0375624
0.03702
0.0364446
0.0358515
0.0352543
0.0346656
0.034098
0.0335507
0.0330226
0.0325124
0.0320155
0.0315302
0.0310529
0.030581
0.0301152
0.0296565
0.0292011
0.0287411
0.0282738
0.0278037
0.0273389
0.026886
0.0264467
0.0260194
0.0256033
0.0251995
0.0248092
0.0244353
0.0240888
0.023777
0.0234936
0.023237
0.0230055
0.022796
0.0226039
0.022429
0.0222675
0.0221192
0.0219824
0.0218548
0.0217381
0.0216271
0.0215239
0.0214242
0.0213297
0.0212389
0.021153
0.0210707
0.0209922
0.0209172
0.0208453
0.0207765
0.0207108
0.0206486
0.0205891
0.0205313
0.0204752
0.0204219
0.0203715
0.0203231
0.0202758
0.0202299
0.0201856
0.0201436
0.0201044
0.0200687
0.0200363
0.0200068
0.0199767
0.0199445
0.0199069
0.0198662
0.0198235
0.0197771
0.0197266
0.0196761
0.0196293
0.0195903
0.0195518
0.0556428
0.0434585
0.0429144
0.0431756
0.0432783
0.0433673
0.0434164
0.0434203
0.0433971
0.0433508
0.0432898
0.0432227
0.0431579
0.0430983
0.0430425
0.0429865
0.0429254
0.0428561
0.0427774
0.0426905
0.0425969
0.0424974
0.0423921
0.0422804
0.0421617
0.0420353
0.0419005
0.0417567
0.0416034
0.0414401
0.0412663
0.0410807
0.0408816
0.0406667
0.0404337
0.0401801
0.0399031
0.0395997
0.0392662
0.0388985
0.0384917
0.0380408
0.0375439
0.0370058
0.036438
0.0358554
0.0352707
0.0346978
0.0341423
0.0336002
0.0330796
0.0325783
0.032096
0.0316259
0.0311583
0.0306926
0.0302267
0.0297598
0.0292978
0.0288445
0.028394
0.0279397
0.0274794
0.0270167
0.0265592
0.0261163
0.0256936
0.0252922
0.0249112
0.0245475
0.0241988
0.0238742
0.0235796
0.0233136
0.0230737
0.0228567
0.0226581
0.0224781
0.0223116
0.0221594
0.0220185
0.0218869
0.021766
0.0216504
0.0215428
0.0214394
0.0213423
0.0212495
0.0211622
0.0210786
0.0209989
0.0209226
0.0208495
0.0207797
0.0207138
0.0206512
0.0205907
0.0205324
0.0204768
0.0204244
0.0203744
0.0203262
0.0202797
0.0202351
0.020192
0.0201507
0.0201117
0.020076
0.0200436
0.0200141
0.0199841
0.0199521
0.0199146
0.0198742
0.0198319
0.0197859
0.0197352
0.0196845
0.0196378
0.0195995
0.0195603
0.055646
0.043456
0.0428996
0.0431641
0.0432692
0.0433596
0.0434094
0.0434136
0.0433908
0.0433447
0.0432841
0.0432175
0.0431533
0.0430944
0.043039
0.0429833
0.0429223
0.042853
0.0427741
0.0426869
0.0425929
0.0424932
0.0423877
0.0422758
0.042157
0.0420305
0.0418955
0.0417513
0.0415975
0.0414338
0.0412595
0.0410733
0.0408736
0.040658
0.0404242
0.0401696
0.0398915
0.0395868
0.0392519
0.0388827
0.0384743
0.0380227
0.0375273
0.0369942
0.0364349
0.0358627
0.0352915
0.0347307
0.0341804
0.0336491
0.0331421
0.0326507
0.0321729
0.0317048
0.0312444
0.0307897
0.0303381
0.0298836
0.029422
0.028957
0.0284966
0.0280441
0.0275965
0.0271497
0.0267024
0.0262569
0.0258191
0.0253963
0.0249957
0.024624
0.0242785
0.0239528
0.0236513
0.0233762
0.0231275
0.0229027
0.0226976
0.0225113
0.0223384
0.0221809
0.0220345
0.0218986
0.0217732
0.0216544
0.0215448
0.0214406
0.021344
0.021252
0.0211651
0.0210816
0.0210019
0.0209253
0.0208517
0.0207817
0.0207152
0.0206517
0.0205902
0.0205312
0.0204754
0.0204225
0.0203714
0.020322
0.020275
0.0202304
0.0201876
0.0201465
0.0201077
0.0200723
0.0200405
0.0200122
0.019984
0.0199541
0.0199184
0.0198796
0.0198383
0.0197924
0.0197415
0.01969
0.0196427
0.019603
0.0195619
0.0556478
0.043454
0.0428851
0.0431526
0.0432601
0.0433516
0.0434022
0.0434068
0.0433843
0.0433384
0.0432782
0.0432122
0.0431487
0.0430904
0.0430354
0.0429801
0.0429193
0.0428498
0.0427707
0.0426832
0.042589
0.042489
0.0423833
0.0422713
0.0421523
0.0420256
0.0418904
0.041746
0.0415918
0.0414276
0.0412527
0.041066
0.0408656
0.0406493
0.0404147
0.0401592
0.0398801
0.0395742
0.0392379
0.0388673
0.0384577
0.038006
0.0375133
0.0369861
0.0364355
0.035874
0.0353143
0.0347619
0.034223
0.0337102
0.0332131
0.0327303
0.03226
0.0317956
0.0313362
0.0308808
0.0304302
0.0299847
0.0295402
0.0290902
0.0286317
0.0281679
0.027706
0.0272528
0.0268106
0.0263772
0.0259515
0.0255348
0.0251291
0.0247369
0.0243672
0.0240261
0.0237134
0.023429
0.0231723
0.0229409
0.0227304
0.0225401
0.0223654
0.0222081
0.0220618
0.0219257
0.0217995
0.0216798
0.0215698
0.0214648
0.0213672
0.0212734
0.0211845
0.0210989
0.0210178
0.02094
0.0208657
0.0207947
0.020727
0.0206623
0.0206003
0.0205416
0.0204857
0.0204318
0.0203793
0.020329
0.020281
0.020235
0.0201907
0.0201483
0.0201085
0.0200723
0.0200394
0.0200096
0.0199796
0.0199479
0.0199106
0.0198702
0.0198274
0.0197805
0.0197285
0.0196762
0.0196274
0.019587
0.0195455
0.0556495
0.0434524
0.0428709
0.043141
0.0432508
0.0433435
0.0433948
0.0433998
0.0433776
0.043332
0.0432722
0.0432069
0.0431441
0.0430863
0.0430319
0.0429768
0.0429161
0.0428466
0.0427673
0.0426795
0.0425849
0.0424847
0.0423788
0.0422667
0.0421476
0.0420208
0.0418854
0.0417407
0.0415861
0.0414214
0.041246
0.0410587
0.0408577
0.0406407
0.0404054
0.040149
0.0398688
0.0395618
0.0392243
0.0388523
0.0384419
0.037991
0.0375014
0.0369803
0.0364387
0.0358879
0.0353377
0.0347959
0.0342739
0.0337705
0.0332763
0.0328016
0.0323409
0.0318903
0.0314427
0.030994
0.0305434
0.0300907
0.0296405
0.0291964
0.0287538
0.0283064
0.0278512
0.0273904
0.026931
0.0264821
0.0260498
0.0256354
0.0252378
0.0248559
0.0244893
0.0241421
0.0238196
0.0235245
0.0232572
0.0230159
0.0227968
0.022599
0.0224174
0.0222521
0.0220978
0.0219539
0.0218211
0.0216954
0.0215805
0.0214713
0.0213705
0.0212738
0.0211832
0.0210966
0.021015
0.0209368
0.0208623
0.0207908
0.0207222
0.0206567
0.020595
0.0205369
0.0204808
0.0204263
0.0203737
0.0203241
0.0202764
0.0202299
0.0201848
0.0201416
0.0201012
0.0200643
0.0200309
0.0200007
0.0199706
0.0199389
0.0199018
0.0198617
0.0198193
0.019773
0.0197213
0.0196695
0.0196207
0.019581
0.0195421
0.0556492
0.0434512
0.042857
0.0431295
0.0432413
0.0433351
0.0433872
0.0433927
0.0433708
0.0433255
0.0432662
0.0432015
0.0431394
0.0430823
0.0430282
0.0429735
0.0429129
0.0428434
0.0427639
0.0426758
0.0425809
0.0424804
0.0423743
0.0422621
0.0421429
0.042016
0.0418804
0.0417354
0.0415805
0.0414154
0.0412395
0.0410516
0.0408499
0.0406322
0.0403961
0.0401389
0.0398578
0.0395497
0.039211
0.038838
0.0384273
0.0379777
0.0374919
0.0369772
0.0364443
0.0359033
0.0353636
0.0348356
0.0343248
0.0338216
0.033337
0.0328724
0.0324175
0.0319723
0.0315321
0.0310937
0.0306569
0.0302161
0.0297672
0.0293132
0.028861
0.0284142
0.027971
0.0275268
0.0270794
0.0266304
0.0261851
0.0257508
0.0253346
0.0249412
0.0245707
0.0242209
0.0238939
0.0235917
0.0233156
0.0230647
0.0228371
0.0226315
0.0224426
0.0222709
0.0221134
0.0219687
0.0218362
0.0217108
0.0215964
0.0214875
0.021387
0.0212907
0.0212006
0.0211139
0.0210316
0.0209525
0.0208769
0.020804
0.0207336
0.0206668
0.0206044
0.0205451
0.0204873
0.0204318
0.0203801
0.0203316
0.0202846
0.0202387
0.0201942
0.0201517
0.0201116
0.0200746
0.0200409
0.0200103
0.0199801
0.0199486
0.0199116
0.0198715
0.0198292
0.0197829
0.0197308
0.0196789
0.0196295
0.0195892
0.0195482
0.055648
0.0434504
0.0428434
0.0431178
0.0432317
0.0433266
0.0433794
0.0433853
0.0433638
0.0433189
0.04326
0.0431961
0.0431347
0.0430782
0.0430246
0.0429701
0.0429097
0.0428401
0.0427604
0.042672
0.0425768
0.042476
0.0423698
0.0422575
0.0421382
0.0420112
0.0418755
0.0417302
0.041575
0.0414095
0.0412331
0.0410446
0.0408423
0.0406239
0.040387
0.0401289
0.0398469
0.0395378
0.0391981
0.0388244
0.0384139
0.0379663
0.0374849
0.0369775
0.0364526
0.0359211
0.035393
0.0348763
0.0343696
0.0338771
0.0334117
0.0329558
0.0325075
0.0320653
0.0316256
0.0311874
0.030752
0.03032
0.0298873
0.0294483
0.0289999
0.0285441
0.028087
0.0276355
0.0271925
0.0267558
0.0263238
0.0258975
0.0254794
0.025073
0.0246838
0.0243172
0.0239762
0.0236625
0.0233769
0.0231184
0.0228845
0.0226739
0.0224829
0.0223122
0.022156
0.0220097
0.0218737
0.0217428
0.0216224
0.021508
0.021403
0.0213027
0.021209
0.0211192
0.0210347
0.020954
0.0208773
0.0208034
0.0207322
0.0206649
0.0206017
0.020541
0.0204821
0.0204263
0.0203743
0.0203244
0.0202753
0.0202279
0.0201835
0.0201415
0.0201018
0.0200648
0.0200311
0.0200005
0.0199705
0.0199393
0.0199026
0.0198623
0.0198194
0.0197723
0.019719
0.0196655
0.0196145
0.0195729
0.0195312
0.0556456
0.04345
0.0428301
0.0431061
0.0432218
0.0433179
0.0433714
0.0433779
0.0433567
0.0433121
0.0432538
0.0431905
0.0431299
0.043074
0.0430209
0.0429667
0.0429064
0.0428367
0.0427568
0.0426681
0.0425727
0.0424717
0.0423653
0.0422528
0.0421335
0.0420064
0.0418706
0.0417251
0.0415696
0.0414037
0.0412268
0.0410377
0.0408348
0.0406157
0.040378
0.0401191
0.0398362
0.0395262
0.0391857
0.0388117
0.038402
0.0379569
0.0374805
0.0369797
0.0364631
0.0359415
0.0354242
0.0349155
0.0344183
0.0339446
0.0334854
0.0330306
0.0325918
0.0321621
0.0317337
0.031302
0.0308665
0.0304284
0.0299909
0.0295568
0.0291234
0.0286844
0.0282362
0.0277798
0.0273212
0.026869
0.0264297
0.0260049
0.025594
0.0251959
0.0248112
0.0244431
0.0240959
0.0237731
0.0234772
0.0232074
0.0229626
0.0227411
0.0225398
0.0223561
0.0221869
0.0220302
0.0218886
0.0217535
0.0216312
0.0215155
0.0214105
0.0213101
0.0212163
0.0211266
0.0210426
0.0209625
0.0208859
0.020812
0.020741
0.0206737
0.0206099
0.0205487
0.0204902
0.0204352
0.0203821
0.0203297
0.0202772
0.020227
0.0201792
0.0201337
0.0200912
0.0200522
0.0200172
0.0199858
0.0199554
0.0199239
0.019887
0.0198466
0.0198037
0.0197567
0.0197035
0.0196501
0.019599
0.019558
0.0195191
0.0556424
0.0434498
0.0428172
0.0430943
0.0432119
0.043309
0.0433632
0.0433702
0.0433495
0.0433052
0.0432474
0.043185
0.0431252
0.0430699
0.0430172
0.0429633
0.0429031
0.0428333
0.0427532
0.0426642
0.0425685
0.0424673
0.0423607
0.0422482
0.0421288
0.0420016
0.0418657
0.0417201
0.0415643
0.041398
0.0412207
0.0410311
0.0408274
0.0406077
0.0403692
0.0401095
0.0398258
0.039515
0.039174
0.0388
0.0383915
0.0379494
0.0374777
0.0369838
0.036476
0.0359641
0.035456
0.0349566
0.0344738
0.034009
0.0335474
0.0331029
0.0326736
0.0322474
0.0318253
0.0314043
0.0309822
0.0305555
0.0301202
0.0296781
0.0292352
0.0287956
0.0283583
0.0279186
0.0274738
0.0270244
0.026575
0.0261325
0.0257036
0.0252928
0.0249011
0.0245286
0.024177
0.0238485
0.0235449
0.0232652
0.0230102
0.0227789
0.0225701
0.0223801
0.0222091
0.022055
0.0219178
0.0217849
0.0216626
0.0215453
0.0214371
0.0213336
0.0212366
0.021144
0.0210569
0.0209742
0.0208954
0.02082
0.0207475
0.0206784
0.0206127
0.0205503
0.0204917
0.0204362
0.0203821
0.02033
0.0202805
0.0202339
0.020188
0.0201431
0.0201004
0.0200607
0.0200252
0.0199936
0.0199632
0.0199319
0.0198949
0.0198544
0.0198113
0.019764
0.0197103
0.0196566
0.019605
0.0195637
0.0195218
0.055638
0.0434495
0.0428047
0.0430824
0.0432017
0.0433
0.0433549
0.0433625
0.0433421
0.0432982
0.043241
0.0431794
0.0431203
0.0430657
0.0430134
0.0429597
0.0428996
0.0428298
0.0427496
0.0426603
0.0425643
0.0424628
0.0423561
0.0422435
0.042124
0.0419968
0.0418608
0.041715
0.041559
0.0413924
0.0412147
0.0410245
0.0408203
0.0405998
0.0403607
0.0401002
0.0398158
0.0395044
0.0391631
0.0387896
0.0383828
0.0379441
0.0374779
0.0369904
0.0364909
0.0359881
0.0354894
0.0350017
0.0345297
0.0340655
0.0336141
0.0331854
0.03276
0.0323385
0.03192
0.0315001
0.03108
0.0306618
0.0302417
0.0298147
0.0293777
0.0289313
0.0284809
0.028033
0.0275911
0.0271536
0.0267183
0.0262858
0.0258584
0.0254398
0.0250339
0.0246453
0.024279
0.0239378
0.0236233
0.023336
0.0230745
0.0228381
0.0226247
0.022434
0.022262
0.0221009
0.0219512
0.0218082
0.0216787
0.0215554
0.0214429
0.0213365
0.0212386
0.0211459
0.0210585
0.0209755
0.0208965
0.0208206
0.0207475
0.0206775
0.0206107
0.0205478
0.020488
0.02043
0.0203731
0.0203193
0.0202701
0.0202243
0.0201797
0.0201358
0.0200934
0.0200543
0.0200193
0.0199884
0.0199586
0.0199277
0.0198908
0.0198498
0.0198054
0.0197565
0.0197007
0.0196443
0.0195904
0.0195469
0.0195036
0.0556326
0.0434491
0.0427925
0.0430704
0.0431915
0.0432907
0.0433464
0.0433545
0.0433345
0.043291
0.0432345
0.0431737
0.0431155
0.0430614
0.0430096
0.0429562
0.0428961
0.0428263
0.0427458
0.0426563
0.0425601
0.0424584
0.0423515
0.0422388
0.0421193
0.0419921
0.041856
0.0417101
0.0415539
0.041387
0.0412089
0.0410182
0.0408134
0.0405923
0.0403524
0.0400913
0.0398062
0.0394944
0.0391531
0.0387803
0.0383756
0.0379406
0.0374796
0.0369989
0.0365076
0.0360139
0.0355253
0.035048
0.0345818
0.0341263
0.0336946
0.0332729
0.0328523
0.0324403
0.03203
0.0316156
0.0311959
0.0307727
0.0303485
0.0299256
0.0295023
0.029073
0.0286334
0.0281836
0.0277285
0.0272756
0.0268317
0.0263995
0.0259785
0.0255674
0.025167
0.0247796
0.0244098
0.0240616
0.0237382
0.0234401
0.0231664
0.0229167
0.0226891
0.0224832
0.0222972
0.0221266
0.0219718
0.0218287
0.0217
0.0215773
0.0214653
0.0213595
0.0212618
0.0211689
0.0210799
0.0209945
0.0209127
0.0208344
0.0207593
0.0206881
0.0206208
0.0205575
0.0204965
0.0204367
0.0203779
0.0203227
0.0202713
0.0202213
0.0201715
0.0201236
0.0200792
0.0200391
0.0200037
0.0199726
0.0199428
0.0199117
0.0198744
0.0198327
0.0197878
0.0197387
0.0196829
0.0196269
0.0195731
0.0195302
0.0194899
0.0556259
0.0434487
0.0427808
0.0430582
0.043181
0.0432813
0.0433378
0.0433464
0.0433267
0.0432837
0.0432279
0.043168
0.0431106
0.0430572
0.0430057
0.0429525
0.0428926
0.0428226
0.042742
0.0426523
0.0425558
0.0424539
0.0423468
0.0422341
0.0421146
0.0419873
0.0418512
0.0417052
0.0415488
0.0413817
0.0412032
0.0410121
0.0408067
0.040585
0.0403445
0.0400828
0.0397972
0.0394851
0.0391441
0.0387725
0.0383701