/*--------------------------------*- C++ -*----------------------------------*\
| =========                 |                                                 |
| \\      /  F ield         | OpenFOAM: The Open Source CFD Toolbox           |
|  \\    /   O peration     | Version:  2412                                  |
|   \\  /    A nd           | Website:  www.openfoam.com                      |
|    \\/     M anipulation  |                                                 |
\*---------------------------------------------------------------------------*/
FoamFile
{
    version     2.0;
    format      ascii;
    arch        "LSB;label=32;scalar=64";
    class       volScalarField;
    location    "0.107";
    object      p;
}
// * * * * * * * * * * * * * * * * * * * * * * * * * * * * * * * * * * * * * //

dimensions      [1 -1 -2 0 0 0 0];

internalField   nonuniform List<scalar> 
9816
(
2967.59
2967.98
2968.25
2968.4
2968.44
2968.38
2968.23
2967.99
2967.66
2967.25
2966.76
2966.2
2965.57
2964.87
2964.12
2963.32
2962.47
2961.52
2960.72
2959.78
2958.9
2957.97
2957.01
2956.02
2955
2953.94
2952.86
2951.71
2950.55
2949.43
2948.29
2947.25
2946.12
2945.12
2943.95
2943.03
2941.8
2940.92
2939.61
2938.84
2937.58
2937.27
2897.72
2896.77
2895.78
2894.77
2893.75
2892.7
2891.7
2890.68
2889.66
2888.64
2887.64
2886.63
2885.65
2884.67
2883.73
2882.79
2881.9
2881.01
2880.14
2879.29
2878.45
2877.66
2876.88
2876.15
2875.5
2874.87
2874.39
2873.86
2873.49
2873.01
2872.61
2872.06
2871.59
2871.04
2870.61
2870.15
2869.81
2869.49
2869.27
2868.97
2868.61
2867.66
2865.02
2864.2
2863.44
2862.65
2861.9
2861.15
2860.42
2859.71
2859.02
2858.35
2857.69
2857.05
2856.44
2855.84
2855.26
2854.7
2854.15
2853.63
2853.13
2852.64
2852.18
2851.76
2851.36
2850.97
2850.57
2850.2
2849.81
2849.42
2849.02
2848.67
2848.32
2847.94
2847.79
2847.68
2846.82
2846.65
2847.56
2847.42
2846.3
2845.6
2845.61
2845.7
2845.92
2845.33
2844.75
2844.18
2843.62
2843.08
2842.54
2842.01
2841.51
2841.02
2840.55
2840.1
2839.65
2839.24
2838.83
2838.45
2838.08
2837.72
2837.37
2837.06
2836.74
2836.46
2836.15
2835.92
2835.63
2835.42
2835.14
2834.96
2834.7
2834.57
2834.36
2833.89
2833.97
2834.65
2833.73
2832.64
2832.98
2833.58
2833.82
2833.71
2833.31
2832.82
2833.47
2833
2832.54
2832.09
2831.65
2831.23
2830.83
2830.45
2830.09
2829.75
2829.43
2829.11
2828.81
2828.53
2828.26
2828
2827.75
2827.51
2827.29
2827.08
2826.86
2826.67
2826.47
2826.3
2826.12
2825.97
2825.79
2825.67
2825.56
2825.3
2825.19
2825.56
2825.15
2824.2
2824.58
2825.24
2825.34
2825.03
2824.4
2824.05
2823.93
2823.94
2824.33
2823.98
2823.67
2823.37
2823.1
2822.83
2822.58
2822.34
2822.1
2821.88
2821.66
2821.46
2821.26
2821.07
2820.89
2820.71
2820.54
2820.38
2820.23
2820.08
2819.94
2819.8
2819.67
2819.54
2819.41
2819.29
2819.18
2819.1
2818.89
2818.95
2819.14
2818.48
2818
2818.71
2819.17
2818.97
2818.23
2817.84
2817.73
2817.79
2818.04
2818.32
2818.16
2817.93
2817.7
2817.47
2817.26
2817.05
2816.85
2816.65
2816.48
2816.3
2816.13
2815.97
2815.81
2815.66
2815.51
2815.37
2815.24
2815.11
2814.99
2814.87
2814.78
2814.66
2814.58
2814.46
2814.39
2814.28
2814.19
2814.09
2814.16
2814.06
2813.57
2813.78
2814.39
2814.09
2813.32
2813.15
2813.23
2813.46
2813.71
2813.83
2813.77
2813.54
2813.25
2813.06
2812.9
2812.73
2812.58
2812.43
2812.29
2812.15
2812.01
2811.87
2811.73
2811.6
2811.47
2811.35
2811.23
2811.12
2811.02
2810.92
2810.82
2810.74
2810.65
2810.58
2810.51
2810.45
2810.41
2810.36
2810.32
2810.31
2810.4
2810.04
2809.9
2810.56
2810.67
2809.85
2809.44
2809.56
2809.91
2810.31
2810.45
2810.35
2810.08
2809.76
2809.43
2809.33
2809.22
2809.11
2809.01
2808.9
2808.79
2808.68
2808.57
2808.47
2808.37
2808.28
2808.19
2808.11
2808.04
2807.97
2807.92
2807.84
2807.8
2807.73
2807.69
2807.61
2807.57
2807.52
2807.47
2807.43
2807.36
2807.33
2807.36
2807.3
2807.01
2807.24
2807.64
2807.34
2806.75
2806.73
2806.88
2807.18
2807.4
2807.4
2807.24
2807.03
2806.7
2806.62
2806.53
2806.44
2806.36
2806.28
2806.22
2806.15
2806.1
2806.05
2806.01
2805.98
2805.93
2805.89
2805.86
2805.82
2805.78
2805.74
2805.7
2805.68
2805.63
2805.62
2805.56
2805.56
2805.49
2805.5
2805.42
2805.43
2805.35
2805.48
2805.4
2805.08
2805.15
2805.62
2805.68
2805.23
2804.94
2804.94
2805.05
2805.27
2805.44
2805.5
2804.6
2804.54
2804.5
2804.47
2804.44
2804.42
2804.4
2804.38
2804.35
2804.31
2804.28
2804.25
2804.22
2804.19
2804.17
2804.14
2804.12
2804.09
2804.08
2804.05
2804.04
2804.01
2804.01
2803.99
2803.99
2803.96
2803.96
2803.93
2803.96
2803.9
2803.83
2803.94
2804.09
2803.77
2803.57
2803.78
2804.02
2804.06
2803.97
2803.78
2803.66
2803.63
2802.93
2802.93
2802.92
2802.91
2802.88
2802.86
2802.84
2802.82
2802.8
2802.79
2802.77
2802.75
2802.74
2802.73
2802.73
2802.72
2802.73
2802.7
2802.73
2802.69
2802.74
2802.68
2802.74
2802.68
2802.74
2802.68
2802.73
2802.69
2802.74
2802.65
2802.73
2802.85
2802.66
2802.39
2802.63
2802.97
2803.02
2802.82
2802.49
2802.44
2802.47
2802.59
2802.2
2802.21
2802.22
2802.23
2802.24
2802.26
2802.27
2802.28
2802.29
2802.3
2802.31
2802.32
2802.32
2802.31
2802.31
2802.3
2802.3
2802.29
2802.3
2802.26
2802.28
2802.23
2802.26
2802.21
2802.25
2802.2
2802.25
2802.2
2802.22
2802.22
2802.3
2802.12
2802.09
2802.37
2802.49
2802.21
2801.94
2802
2802.12
2802.29
2802.42
2802.41
2801.68
2801.71
2801.74
2801.76
2801.79
2801.81
2801.83
2801.84
2801.87
2801.88
2801.9
2801.92
2801.93
2801.95
2801.96
2801.98
2801.99
2802.01
2802.03
2802.04
2802.06
2802.07
2802.09
2802.09
2802.11
2802.11
2802.13
2802.12
2802.12
2802.13
2802.22
2802.09
2801.95
2802.19
2802.45
2802.31
2801.97
2801.92
2801.97
2802.13
2802.32
2802.39
2801.27
2801.3
2801.34
2801.36
2801.41
2801.44
2801.47
2801.49
2801.52
2801.54
2801.57
2801.59
2801.61
2801.63
2801.65
2801.67
2801.68
2801.7
2801.71
2801.73
2801.74
2801.76
2801.77
2801.78
2801.79
2801.79
2801.82
2801.8
2801.81
2801.82
2801.89
2801.78
2801.7
2801.92
2802.09
2801.9
2801.61
2801.63
2801.72
2801.91
2802.03
2802.03
2800.96
2801
2801.04
2801.08
2801.11
2801.15
2801.18
2801.21
2801.24
2801.27
2801.3
2801.32
2801.35
2801.37
2801.39
2801.42
2801.44
2801.46
2801.48
2801.51
2801.53
2801.55
2801.56
2801.58
2801.6
2801.62
2801.63
2801.65
2801.65
2801.67
2801.71
2801.71
2801.59
2801.68
2801.9
2801.86
2801.61
2801.53
2801.61
2801.77
2801.91
2801.94
2800.69
2800.75
2800.81
2800.87
2800.93
2800.99
2801.04
2801.09
2801.14
2801.18
2801.21
2801.25
2801.29
2801.32
2801.35
2801.37
2801.4
2801.42
2801.44
2801.46
2801.48
2801.49
2801.52
2801.52
2801.55
2801.55
2801.57
2801.57
2801.6
2801.59
2801.61
2801.65
2801.64
2801.55
2801.63
2801.8
2801.77
2801.57
2801.5
2801.56
2801.69
2801.81
2800.33
2800.4
2800.46
2800.51
2800.56
2800.6
2800.64
2800.68
2800.72
2800.76
2800.8
2800.84
2800.88
2800.92
2800.95
2800.99
2801.02
2801.06
2801.08
2801.12
2801.14
2801.18
2801.18
2801.23
2801.23
2801.28
2801.27
2801.31
2801.31
2801.35
2801.35
2801.36
2801.36
2801.44
2801.43
2801.31
2801.35
2801.54
2801.61
2801.5
2801.36
2801.36
2799.93
2800
2800.06
2800.13
2800.2
2800.26
2800.32
2800.38
2800.43
2800.48
2800.53
2800.57
2800.61
2800.65
2800.68
2800.73
2800.75
2800.79
2800.81
2800.85
2800.87
2800.91
2800.92
2800.96
2800.97
2801.01
2801.02
2801.05
2801.06
2801.09
2801.1
2801.13
2801.14
2801.12
2801.16
2801.28
2801.2
2801.04
2801.11
2801.32
2801.41
2801.36
2799.47
2799.56
2799.64
2799.73
2799.8
2799.88
2799.95
2800.01
2800.08
2800.14
2800.19
2800.24
2800.29
2800.34
2800.38
2800.42
2800.46
2800.48
2800.53
2800.54
2800.59
2800.6
2800.65
2800.65
2800.7
2800.7
2800.75
2800.74
2800.8
2800.78
2800.83
2800.82
2800.88
2800.84
2800.84
2800.94
2801.03
2800.81
2800.73
2800.96
2801.16
2801.15
2798.98
2799.08
2799.18
2799.27
2799.36
2799.45
2799.52
2799.6
2799.67
2799.73
2799.79
2799.85
2799.9
2799.95
2799.99
2800.03
2800.08
2800.11
2800.16
2800.19
2800.24
2800.25
2800.3
2800.31
2800.36
2800.36
2800.41
2800.41
2800.45
2800.46
2800.49
2800.51
2800.53
2800.54
2800.52
2800.6
2800.69
2800.54
2800.4
2800.63
2800.88
2800.83
2798.38
2798.49
2798.6
2798.69
2798.79
2798.87
2798.95
2799.02
2799.1
2799.16
2799.23
2799.29
2799.35
2799.4
2799.46
2799.52
2799.56
2799.62
2799.66
2799.71
2799.74
2799.78
2799.81
2799.86
2799.87
2799.92
2799.93
2799.97
2799.98
2800.02
2800.03
2800.07
2800.08
2800.1
2800.1
2800.15
2800.21
2800.11
2800.06
2800.29
2800.41
2800.17
2797.68
2797.79
2797.9
2798.01
2798.11
2798.21
2798.3
2798.39
2798.47
2798.55
2798.63
2798.69
2798.76
2798.82
2798.88
2798.94
2798.99
2799.05
2799.08
2799.14
2799.17
2799.23
2799.25
2799.31
2799.32
2799.38
2799.38
2799.43
2799.44
2799.49
2799.49
2799.53
2799.54
2799.57
2799.58
2799.61
2799.62
2799.62
2799.67
2799.73
2799.62
2799.61
2796.8
2796.93
2797.06
2797.17
2797.28
2797.38
2797.48
2797.57
2797.66
2797.74
2797.81
2797.89
2797.95
2798.02
2798.08
2798.14
2798.19
2798.24
2798.29
2798.33
2798.37
2798.4
2798.45
2798.48
2798.52
2798.55
2798.59
2798.62
2798.65
2798.66
2798.7
2798.72
2798.76
2798.78
2798.79
2798.81
2798.82
2798.85
2798.87
2798.9
2798.9
2798.91
2795.71
2795.84
2795.96
2796.08
2796.19
2796.3
2796.4
2796.49
2796.58
2796.67
2796.75
2796.82
2796.89
2796.96
2797.02
2797.09
2797.15
2797.2
2797.25
2797.3
2797.35
2797.39
2797.44
2797.48
2797.5
2797.51
2797.58
2797.64
2797.66
2797.66
2797.68
2797.73
2797.77
2797.82
2797.83
2797.85
2797.84
2797.86
2797.86
2797.9
2797.92
2797.97
2794.89
2795.02
2795.14
2795.25
2795.35
2795.44
2795.53
2795.62
2795.69
2795.77
2795.85
2795.91
2795.98
2796.03
2796.09
2796.14
2796.2
2796.25
2796.29
2796.34
2796.38
2796.42
2796.45
2796.49
2796.54
2796.57
2796.55
2796.58
2796.63
2796.68
2796.7
2796.72
2796.72
2796.74
2796.77
2796.8
2796.84
2796.86
2796.89
2796.89
2796.91
2796.9
2793.94
2794.05
2794.16
2794.26
2794.36
2794.46
2794.55
2794.64
2794.72
2794.8
2794.88
2794.95
2795.02
2795.09
2795.15
2795.21
2795.27
2795.33
2795.38
2795.43
2795.48
2795.53
2795.55
2795.6
2795.66
2795.7
2795.69
2795.72
2795.77
2795.81
2795.82
2795.81
2795.8
2795.8
2795.83
2795.85
2795.87
2795.88
2795.89
2795.88
2795.88
2795.87
2793.11
2793.21
2793.3
2793.39
2793.48
2793.56
2793.64
2793.72
2793.79
2793.86
2793.92
2793.98
2794.04
2794.09
2794.14
2794.18
2794.23
2794.27
2794.3
2794.34
2794.37
2794.4
2794.42
2794.45
2794.49
2794.52
2794.51
2794.53
2794.57
2794.61
2794.62
2794.63
2794.63
2794.65
2794.67
2794.7
2794.72
2794.74
2794.76
2794.76
2794.77
2794.76
2792.38
2792.46
2792.54
2792.61
2792.68
2792.75
2792.81
2792.87
2792.92
2792.97
2793.02
2793.07
2793.11
2793.15
2793.19
2793.23
2793.26
2793.29
2793.33
2793.35
2793.39
2793.41
2793.43
2793.45
2793.49
2793.51
2793.52
2793.52
2793.56
2793.59
2793.62
2793.62
2793.63
2793.63
2793.65
2793.66
2793.69
2793.71
2793.73
2793.73
2793.74
2793.74
2791.71
2791.78
2791.83
2791.89
2791.94
2791.99
2792.04
2792.09
2792.13
2792.17
2792.2
2792.23
2792.27
2792.3
2792.33
2792.35
2792.38
2792.4
2792.42
2792.45
2792.46
2792.49
2792.5
2792.52
2792.54
2792.56
2792.56
2792.57
2792.59
2792.61
2792.62
2792.63
2792.64
2792.65
2792.66
2792.67
2792.68
2792.69
2792.69
2792.7
2792.71
2792.71
2791.05
2791.09
2791.13
2791.17
2791.21
2791.24
2791.27
2791.3
2791.33
2791.35
2791.37
2791.39
2791.41
2791.43
2791.44
2791.46
2791.47
2791.49
2791.49
2791.51
2791.52
2791.54
2791.54
2791.56
2791.55
2791.58
2791.57
2791.59
2791.59
2791.61
2791.6
2791.62
2791.61
2791.62
2791.62
2791.63
2791.63
2791.64
2791.64
2791.64
2791.64
2791.64
2790.3
2790.33
2790.35
2790.37
2790.39
2790.4
2790.42
2790.43
2790.44
2790.45
2790.46
2790.48
2790.49
2790.49
2790.5
2790.51
2790.52
2790.52
2790.53
2790.54
2790.54
2790.54
2790.54
2790.55
2790.55
2790.55
2790.55
2790.56
2790.55
2790.56
2790.56
2790.56
2790.56
2790.56
2790.55
2790.56
2790.57
2790.56
2790.52
2790.54
2790.63
2790.56
2789.53
2789.53
2789.53
2789.54
2789.54
2789.54
2789.54
2789.54
2789.54
2789.54
2789.54
2789.54
2789.54
2789.54
2789.54
2789.53
2789.53
2789.52
2789.52
2789.51
2789.51
2789.5
2789.5
2789.49
2789.49
2789.48
2789.48
2789.47
2789.47
2789.46
2789.46
2789.45
2789.45
2789.44
2789.43
2789.46
2789.45
2789.34
2789.38
2789.59
2789.52
2789.24
2788.74
2788.73
2788.71
2788.7
2788.69
2788.67
2788.66
2788.64
2788.63
2788.61
2788.6
2788.58
2788.57
2788.55
2788.54
2788.52
2788.51
2788.49
2788.48
2788.46
2788.45
2788.44
2788.43
2788.41
2788.4
2788.39
2788.38
2788.37
2788.36
2788.35
2788.35
2788.32
2788.31
2788.33
2788.37
2788.23
2788.16
2788.36
2788.5
2788.33
2788.07
2788.06
2787.9
2787.87
2787.84
2787.81
2787.77
2787.74
2787.71
2787.68
2787.66
2787.63
2787.61
2787.59
2787.56
2787.54
2787.52
2787.49
2787.47
2787.45
2787.43
2787.41
2787.4
2787.38
2787.37
2787.35
2787.34
2787.32
2787.31
2787.29
2787.28
2787.25
2787.26
2787.25
2787.17
2787.16
2787.34
2787.3
2787.01
2786.95
2787.08
2787.24
2787.32
2787.26
2786.96
2786.92
2786.88
2786.84
2786.8
2786.77
2786.74
2786.71
2786.68
2786.65
2786.62
2786.59
2786.55
2786.52
2786.49
2786.47
2786.44
2786.42
2786.4
2786.38
2786.36
2786.34
2786.32
2786.29
2786.27
2786.25
2786.24
2786.21
2786.19
2786.22
2786.17
2786.01
2786.13
2786.36
2786.21
2785.89
2785.84
2785.89
2786.04
2786.2
2786.24
2786.16
2785.95
2785.91
2785.86
2785.82
2785.78
2785.74
2785.7
2785.66
2785.62
2785.57
2785.54
2785.5
2785.47
2785.43
2785.41
2785.37
2785.35
2785.32
2785.3
2785.27
2785.25
2785.22
2785.2
2785.18
2785.15
2785.14
2785.11
2785.05
2785.1
2785.17
2784.94
2784.77
2784.99
2785.22
2785.19
2784.98
2784.79
2784.72
2784.71
2784.79
2784.93
2785.02
2784.82
2784.76
2784.71
2784.65
2784.6
2784.56
2784.51
2784.47
2784.43
2784.39
2784.35
2784.32
2784.28
2784.25
2784.21
2784.19
2784.15
2784.13
2784.1
2784.07
2784.04
2784.02
2783.99
2783.96
2783.95
2783.96
2783.85
2783.76
2783.98
2784.07
2783.73
2783.53
2783.57
2783.74
2783.92
2783.96
2783.89
2783.75
2783.59
2783.5
2783.47
2783.5
2783.55
2783.5
2783.45
2783.4
2783.35
2783.31
2783.26
2783.22
2783.18
2783.14
2783.1
2783.06
2783.03
2782.99
2782.96
2782.92
2782.9
2782.86
2782.83
2782.8
2782.77
2782.75
2782.73
2782.65
2782.64
2782.77
2782.66
2782.33
2782.43
2782.72
2782.81
2782.65
2782.42
2782.3
2782.24
2782.28
2782.39
2782.5
2782.55
2782.56
2782.51
2782.4
2782.21
2782.16
2782.1
2782.05
2782.01
2781.96
2781.91
2781.87
2781.83
2781.78
2781.75
2781.7
2781.67
2781.63
2781.6
2781.56
2781.53
2781.49
2781.47
2781.43
2781.39
2781.4
2781.37
2781.18
2781.25
2781.57
2781.37
2780.9
2780.9
2781.05
2781.27
2781.39
2781.36
2781.2
2781.01
2780.86
2780.8
2780.82
2780.89
2780.99
2781.1
2781.17
2780.74
2780.69
2780.63
2780.58
2780.53
2780.49
2780.44
2780.39
2780.35
2780.3
2780.26
2780.22
2780.18
2780.15
2780.11
2780.07
2780.04
2780
2779.97
2779.95
2779.88
2779.82
2779.94
2779.96
2779.57
2779.49
2779.8
2780.01
2779.9
2779.68
2779.51
2779.41
2779.4
2779.48
2779.59
2779.68
2779.72
2779.7
2779.62
2779.53
2779.42
2779.34
2779.15
2779.09
2779.03
2778.97
2778.92
2778.87
2778.81
2778.76
2778.71
2778.67
2778.62
2778.58
2778.54
2778.5
2778.46
2778.42
2778.38
2778.34
2778.3
2778.29
2778.29
2778.13
2778.06
2778.31
2778.32
2777.97
2777.86
2777.89
2778.03
2778.14
2778.13
2778.05
2777.92
2777.82
2777.77
2777.76
2777.77
2777.82
2777.86
2777.9
2777.92
2777.91
2777.42
2777.35
2777.29
2777.23
2777.17
2777.11
2777.06
2777
2776.95
2776.9
2776.85
2776.8
2776.76
2776.71
2776.67
2776.63
2776.59
2776.53
2776.52
2776.54
2776.36
2776.23
2776.55
2776.65
2776.23
2776.02
2776
2776.16
2776.34
2776.42
2776.37
2776.22
2776.04
2775.92
2775.86
2775.85
2775.9
2775.99
2776.1
2776.18
2776.21
2776.19
2775.58
2775.5
2775.43
2775.36
2775.3
2775.23
2775.17
2775.11
2775.05
2775
2774.94
2774.89
2774.84
2774.79
2774.74
2774.69
2774.64
2774.63
2774.6
2774.43
2774.43
2774.68
2774.54
2774.14
2774.13
2774.24
2774.43
2774.51
2774.44
2774.28
2774.11
2774
2773.96
2773.97
2774.03
2774.12
2774.2
2774.25
2774.24
2774.2
2774.12
2774.02
2773.65
2773.57
2773.49
2773.41
2773.33
2773.26
2773.19
2773.12
2773.05
2772.99
2772.92
2772.87
2772.81
2772.76
2772.7
2772.65
2772.61
2772.53
2772.46
2772.59
2772.52
2772.14
2772.15
2772.37
2772.5
2772.42
2772.28
2772.12
2772.01
2771.97
2771.97
2772.03
2772.1
2772.16
2772.17
2772.13
2772.06
2771.97
2771.88
2771.8
2771.73
2771.68
2771.64
2771.55
2771.46
2771.36
2771.28
2771.19
2771.11
2771.03
2770.95
2770.88
2770.81
2770.74
2770.68
2770.61
2770.56
2770.46
2770.46
2770.44
2770.26
2770.16
2770.37
2770.36
2770.18
2770.04
2769.95
2769.95
2769.99
2770.01
2770.02
2769.99
2769.92
2769.86
2769.78
2769.72
2769.67
2769.65
2769.64
2769.65
2769.66
2769.68
2769.69
2769.7
2769.52
2769.41
2769.3
2769.2
2769.09
2769
2768.91
2768.82
2768.74
2768.65
2768.58
2768.5
2768.43
2768.35
2768.27
2768.29
2768.15
2767.97
2768.08
2768.21
2767.99
2767.85
2767.7
2767.67
2767.73
2767.77
2767.79
2767.76
2767.69
2767.6
2767.5
2767.42
2767.36
2767.34
2767.35
2767.38
2767.41
2767.45
2767.47
2767.47
2767.45
2767.41
2767.26
2767.12
2767
2766.88
2766.77
2766.66
2766.56
2766.47
2766.36
2766.3
2766.17
2766.14
2766
2765.96
2765.88
2765.86
2765.68
2765.62
2765.67
2765.63
2765.54
2765.42
2765.33
2765.29
2765.29
2765.27
2765.27
2765.23
2765.18
2765.12
2765.06
2765
2764.96
2764.92
2764.91
2764.9
2764.9
2764.9
2764.89
2764.88
2764.86
2764.84
2764.9
2764.76
2764.63
2764.5
2764.38
2764.27
2764.15
2764.05
2763.95
2763.84
2763.77
2763.64
2763.61
2763.46
2763.43
2763.31
2763.29
2763.19
2763.14
2763.06
2763
2762.92
2762.88
2762.83
2762.79
2762.74
2762.7
2762.65
2762.61
2762.56
2762.52
2762.48
2762.45
2762.42
2762.4
2762.37
2762.35
2762.32
2762.3
2762.28
2762.25
2762.23
2762.5
2762.35
2762.2
2762.06
2761.94
2761.79
2761.7
2761.55
2761.49
2761.32
2761.28
2761.13
2761.06
2760.95
2760.91
2760.81
2760.72
2760.66
2760.57
2760.51
2760.45
2760.41
2760.33
2760.29
2760.21
2760.16
2760.11
2760.07
2760.03
2760
2759.97
2759.95
2759.92
2759.89
2759.86
2759.83
2759.8
2759.76
2759.73
2759.7
2759.67
2759.65
2760.13
2759.96
2759.8
2759.65
2759.51
2759.38
2759.23
2759.14
2758.97
2758.92
2758.75
2758.71
2758.51
2758.5
2758.41
2758.36
2758.27
2758.15
2758.05
2758.01
2757.92
2757.91
2757.83
2757.82
2757.73
2757.7
2757.62
2757.57
2757.51
2757.47
2757.42
2757.39
2757.36
2757.34
2757.31
2757.29
2757.27
2757.25
2757.23
2757.2
2757.18
2757.15
2757.79
2757.6
2757.43
2757.26
2757.1
2756.95
2756.81
2756.69
2756.53
2756.36
2756.38
2756.26
2756.03
2755.93
2755.92
2755.89
2755.82
2755.71
2755.65
2755.48
2755.39
2755.3
2755.25
2755.22
2755.21
2755.19
2755.17
2755.14
2755.09
2755.04
2754.97
2754.9
2754.84
2754.78
2754.72
2754.68
2754.64
2754.61
2754.59
2754.58
2754.57
2754.56
2755.56
2755.35
2755.17
2754.97
2754.82
2754.61
2754.47
2754.35
2754.27
2753.9
2753.85
2753.99
2753.84
2753.65
2753.38
2753.23
2753.16
2753.16
2753.18
2753.19
2753.13
2753.04
2752.9
2752.76
2752.62
2752.52
2752.44
2752.39
2752.37
2752.38
2752.39
2752.41
2752.42
2752.42
2752.41
2752.38
2752.35
2752.3
2752.25
2752.19
2752.13
2752.06
2753.44
2753.24
2752.99
2752.84
2752.63
2752.5
2752.16
2752.19
2752.16
2751.73
2751.41
2751.49
2751.61
2751.55
2751.42
2751.19
2750.93
2750.75
2750.61
2750.56
2750.58
2750.62
2750.66
2750.65
2750.6
2750.5
2750.37
2750.23
2750.09
2749.97
2749.86
2749.79
2749.74
2749.71
2749.7
2749.7
2749.71
2749.73
2749.75
2749.77
2749.79
2749.8
2751.37
2751.11
2750.89
2750.59
2750.53
2750.23
2749.89
2749.84
2750.06
2749.66
2749.34
2749.08
2748.99
2749.02
2748.99
2748.93
2748.86
2748.67
2748.51
2748.33
2748.2
2748.1
2748.06
2748.05
2748.05
2748.05
2748.03
2748
2747.94
2747.87
2747.79
2747.69
2747.6
2747.52
2747.44
2747.37
2747.31
2747.26
2747.23
2747.2
2747.18
2747.17
2749.53
2749.23
2748.91
2748.79
2748.81
2747.94
2747.73
2748.6
2748.39
2747.58
2747.07
2746.73
2746.77
2746.97
2747.16
2747.2
2747.08
2746.78
2746.45
2746.14
2745.9
2745.77
2745.74
2745.79
2745.89
2746
2746.08
2746.12
2746.1
2746.04
2745.93
2745.79
2745.64
2745.48
2745.33
2745.19
2745.06
2744.95
2744.86
2744.79
2744.73
2744.7
2747.75
2747.42
2747.29
2747.27
2746.26
2746.09
2747.12
2747.02
2746.01
2745.21
2744.91
2744.99
2745.2
2745.52
2745.67
2745.59
2745.32
2744.94
2744.53
2744.18
2743.93
2743.82
2743.82
2743.93
2744.08
2744.24
2744.37
2744.43
2744.43
2744.36
2744.23
2744.07
2743.89
2743.7
2743.52
2743.34
2743.18
2743.04
2742.92
2742.83
2742.75
2742.7
2746.25
2745.82
2745.41
2745.69
2745.49
2744.23
2744.23
2744.63
2744.76
2744.57
2744.23
2743.88
2743.64
2743.48
2743.37
2743.31
2743.23
2743.14
2743.01
2742.87
2742.72
2742.6
2742.5
2742.43
2742.38
2742.35
2742.31
2742.27
2742.22
2742.16
2742.08
2742
2741.91
2741.83
2741.73
2741.65
2741.56
2741.49
2741.42
2741.35
2741.3
2741.25
2744.54
2744.52
2744.22
2743.39
2743.43
2743.72
2743.38
2743.09
2742.75
2742.51
2742.38
2742.15
2742.09
2741.9
2741.83
2741.69
2741.61
2741.48
2741.37
2741.23
2741.1
2740.97
2740.85
2740.74
2740.65
2740.56
2740.49
2740.43
2740.38
2740.33
2740.28
2740.24
2740.19
2740.15
2740.1
2740.06
2740.01
2739.96
2739.92
2739.87
2739.82
2739.77
2743.22
2743.06
2742.27
2742.01
2742.31
2742.15
2741.78
2741.34
2740.97
2740.8
2740.65
2740.61
2740.55
2740.49
2740.34
2740.16
2739.96
2739.74
2739.56
2739.39
2739.26
2739.16
2739.09
2739.04
2739
2738.96
2738.92
2738.88
2738.83
2738.77
2738.71
2738.64
2738.56
2738.49
2738.41
2738.33
2738.26
2738.18
2738.11
2738.05
2737.99
2737.93
2741.8
2741.39
2740.91
2740.92
2740.7
2740.5
2740.13
2739.81
2739.55
2739.39
2739.24
2739.15
2739.02
2738.89
2738.71
2738.52
2738.32
2738.15
2737.99
2737.86
2737.75
2737.67
2737.6
2737.55
2737.5
2737.44
2737.39
2737.33
2737.26
2737.19
2737.11
2737.03
2736.95
2736.87
2736.79
2736.71
2736.64
2736.57
2736.51
2736.45
2736.4
2736.34
2740.27
2740.05
2739.61
2739.47
2739.19
2738.89
2738.65
2738.35
2738.2
2737.96
2737.83
2737.63
2737.49
2737.3
2737.14
2736.96
2736.8
2736.64
2736.51
2736.39
2736.28
2736.18
2736.09
2736
2735.92
2735.83
2735.75
2735.67
2735.59
2735.51
2735.44
2735.36
2735.29
2735.22
2735.16
2735.1
2735.04
2734.99
2734.94
2734.89
2734.85
2734.81
2739.19
2738.65
2738.51
2738.15
2737.83
2737.6
2737.29
2737.06
2736.83
2736.6
2736.41
2736.19
2736.01
2735.82
2735.66
2735.5
2735.35
2735.22
2735.09
2734.97
2734.86
2734.75
2734.64
2734.54
2734.44
2734.34
2734.25
2734.15
2734.07
2733.98
2733.9
2733.83
2733.76
2733.69
2733.63
2733.57
2733.52
2733.47
2733.42
2733.38
2733.33
2733.29
2738.35
2737.91
2737.49
2737.16
2736.76
2736.5
2736.16
2735.93
2735.65
2735.42
2735.18
2734.96
2734.75
2734.54
2734.35
2734.17
2734.01
2733.86
2733.72
2733.58
2733.46
2733.34
2733.22
2733.12
2733.02
2732.92
2732.83
2732.74
2732.65
2732.57
2732.5
2732.42
2732.35
2732.29
2732.23
2732.17
2732.11
2732.06
2732
2731.95
2731.91
2731.86
2737.65
2737.23
2736.83
2736.44
2736.05
2735.72
2735.36
2735.06
2734.76
2734.48
2734.21
2733.97
2733.73
2733.51
2733.3
2733.1
2732.91
2732.73
2732.56
2732.4
2732.25
2732.11
2731.98
2731.86
2731.75
2731.64
2731.54
2731.44
2731.35
2731.27
2731.18
2731.11
2731.03
2730.96
2730.9
2730.83
2730.77
2730.72
2730.66
2730.61
2730.56
2730.51
2737.49
2736.93
2736.46
2736.02
2735.6
2735.22
2734.84
2734.5
2734.17
2733.87
2733.57
2733.3
2733.03
2732.78
2732.54
2732.31
2732.09
2731.89
2731.7
2731.51
2731.34
2731.18
2731.03
2730.89
2730.76
2730.63
2730.52
2730.41
2730.3
2730.2
2730.11
2730.02
2729.94
2729.86
2729.78
2729.71
2729.64
2729.58
2729.52
2729.46
2729.4
2729.34
2737.6
2737
2736.47
2735.98
2735.51
2735.07
2734.66
2734.28
2733.91
2733.57
2733.24
2732.93
2732.64
2732.35
2732.09
2731.84
2731.6
2731.37
2731.16
2730.96
2730.77
2730.59
2730.42
2730.26
2730.11
2729.97
2729.83
2729.7
2729.58
2729.47
2729.36
2729.26
2729.16
2729.07
2728.98
2728.9
2728.82
2728.74
2728.67
2728.61
2728.54
2728.47
2738.02
2737.4
2736.82
2736.28
2735.76
2735.28
2734.83
2734.4
2733.99
2733.61
2733.24
2732.9
2732.57
2732.25
2731.96
2731.68
2731.41
2731.16
2730.92
2730.7
2730.49
2730.29
2730.1
2729.92
2729.75
2729.6
2729.45
2729.31
2729.17
2729.05
2728.93
2728.82
2728.71
2728.62
2728.52
2728.43
2728.35
2728.27
2728.19
2728.12
2728.05
2727.98
2738.76
2738.1
2737.49
2736.91
2736.35
2735.82
2735.31
2734.83
2734.37
2733.94
2733.53
2733.14
2732.77
2732.43
2732.1
2731.8
2731.52
2731.25
2731.01
2730.78
2730.56
2730.35
2730.16
2729.98
2729.81
2729.65
2729.49
2729.35
2729.21
2729.08
2728.95
2728.83
2728.72
2728.61
2728.51
2728.41
2728.32
2728.23
2728.14
2728.06
2727.98
2727.9
2739.83
2739.12
2738.44
2737.79
2737.17
2736.58
2736.02
2735.5
2735.01
2734.56
2734.14
2733.75
2733.38
2733.04
2732.73
2732.43
2732.15
2731.88
2731.63
2731.39
2731.16
2730.94
2730.73
2730.52
2730.33
2730.15
2729.97
2729.8
2729.63
2729.48
2729.33
2729.18
2729.05
2728.92
2728.79
2728.67
2728.56
2728.45
2728.35
2728.25
2728.15
2728.05
2741.19
2740.41
2739.66
2738.95
2738.29
2737.68
2737.12
2736.59
2736.12
2735.68
2735.27
2734.89
2734.54
2734.19
2733.87
2733.55
2733.25
2732.95
2732.66
2732.38
2732.11
2731.84
2731.59
2731.34
2731.11
2730.88
2730.67
2730.46
2730.26
2730.08
2729.9
2729.73
2729.57
2729.42
2729.28
2729.15
2729.02
2728.9
2728.79
2728.68
2728.58
2728.47
2742.83
2742.02
2741.26
2740.54
2739.88
2739.26
2738.7
2738.17
2737.68
2737.22
2736.79
2736.38
2735.99
2735.6
2735.23
2734.88
2734.53
2734.19
2733.86
2733.55
2733.25
2732.95
2732.67
2732.41
2732.15
2731.91
2731.68
2731.47
2731.26
2731.07
2730.89
2730.72
2730.56
2730.4
2730.26
2730.13
2730
2729.88
2729.77
2729.67
2729.57
2729.47
2744.86
2744.05
2743.28
2742.56
2741.89
2741.26
2740.66
2740.1
2739.56
2739.06
2738.57
2738.11
2737.67
2737.24
2736.83
2736.44
2736.06
2735.7
2735.36
2735.04
2734.73
2734.43
2734.15
2733.89
2733.64
2733.41
2733.18
2732.97
2732.78
2732.59
2732.41
2732.25
2732.09
2731.95
2731.81
2731.68
2731.55
2731.44
2731.33
2731.22
2731.12
2731.02
2747.28
2746.44
2745.64
2744.89
2744.18
2743.52
2742.88
2742.28
2741.71
2741.17
2740.65
2740.16
2739.69
2739.24
2738.81
2738.41
2738.03
2737.66
2737.31
2736.99
2736.67
2736.38
2736.1
2735.83
2735.58
2735.34
2735.12
2734.91
2734.71
2734.52
2734.34
2734.17
2734
2733.85
2733.7
2733.57
2733.43
2733.31
2733.19
2733.08
2732.97
2732.86
2749.9
2749.03
2748.21
2747.42
2746.69
2745.98
2745.33
2744.7
2744.12
2743.56
2743.03
2742.54
2742.06
2741.61
2741.19
2740.78
2740.4
2740.03
2739.67
2739.34
2739.02
2738.71
2738.42
2738.14
2737.87
2737.62
2737.38
2737.15
2736.93
2736.72
2736.52
2736.33
2736.16
2735.98
2735.82
2735.67
2735.52
2735.38
2735.24
2735.11
2734.99
2734.86
2752.65
2751.75
2750.91
2750.11
2749.36
2748.65
2747.98
2747.35
2746.76
2746.2
2745.68
2745.18
2744.7
2744.25
2743.82
2743.41
2743.01
2742.63
2742.27
2741.92
2741.58
2741.26
2740.95
2740.66
2740.37
2740.1
2739.84
2739.6
2739.36
2739.13
2738.92
2738.71
2738.52
2738.33
2738.16
2737.99
2737.83
2737.67
2737.53
2737.39
2737.25
2737.12
2755.51
2754.61
2753.76
2752.96
2752.2
2751.49
2750.82
2750.19
2749.59
2749.03
2748.49
2747.98
2747.5
2747.03
2746.58
2746.15
2745.74
2745.34
2744.96
2744.59
2744.24
2743.9
2743.58
2743.27
2742.97
2742.69
2742.42
2742.16
2741.92
2741.69
2741.46
2741.25
2741.05
2740.86
2740.68
2740.5
2740.34
2740.18
2740.04
2739.89
2739.75
2739.62
2758.44
2757.56
2756.71
2755.91
2755.16
2754.45
2753.77
2753.13
2752.52
2751.94
2751.39
2750.86
2750.35
2749.86
2749.39
2748.94
2748.51
2748.1
2747.7
2747.32
2746.96
2746.61
2746.28
2745.97
2745.67
2745.38
2745.11
2744.85
2744.6
2744.36
2744.14
2743.93
2743.73
2743.54
2743.35
2743.18
2743.02
2742.86
2742.72
2742.57
2742.43
2742.3
2761.43
2760.55
2759.71
2758.92
2758.16
2757.44
2756.75
2756.1
2755.48
2754.88
2754.31
2753.76
2753.23
2752.73
2752.24
2751.78
2751.34
2750.92
2750.51
2750.13
2749.77
2749.42
2749.09
2748.77
2748.47
2748.19
2747.92
2747.66
2747.41
2747.18
2746.96
2746.75
2746.55
2746.36
2746.18
2746.01
2745.85
2745.69
2745.55
2745.41
2745.27
2745.13
2764.45
2763.57
2762.73
2761.94
2761.18
2760.45
2759.76
2759.1
2758.46
2757.85
2757.27
2756.71
2756.18
2755.67
2755.18
2754.72
2754.27
2753.85
2753.45
2753.07
2752.7
2752.36
2752.03
2751.71
2751.41
2751.13
2750.86
2750.61
2750.36
2750.13
2749.91
2749.7
2749.51
2749.32
2749.14
2748.97
2748.81
2748.65
2748.5
2748.36
2748.23
2748.09
2767.45
2766.58
2765.74
2764.95
2764.18
2763.46
2762.76
2762.09
2761.46
2760.85
2760.27
2759.71
2759.18
2758.67
2758.19
2757.73
2757.29
2756.87
2756.47
2756.09
2755.73
2755.38
2755.06
2754.75
2754.45
2754.17
2753.9
2753.65
2753.4
2753.17
2752.96
2752.75
2752.55
2752.36
2752.18
2752.01
2751.85
2751.69
2751.55
2751.4
2751.26
2751.13
2770.47
2769.6
2768.77
2767.98
2767.22
2766.49
2765.8
2765.13
2764.5
2763.9
2763.32
2762.77
2762.24
2761.74
2761.26
2760.8
2760.37
2759.95
2759.56
2759.18
2758.83
2758.49
2758.16
2757.86
2757.56
2757.28
2757.02
2756.77
2756.53
2756.3
2756.08
2755.87
2755.67
2755.48
2755.3
2755.13
2754.97
2754.81
2754.66
2754.52
2754.38
2754.24
2773.49
2772.63
2771.81
2771.03
2770.27
2769.55
2768.87
2768.21
2767.58
2766.98
2766.41
2765.86
2765.34
2764.85
2764.38
2763.93
2763.5
2763.1
2762.71
2762.34
2761.99
2761.65
2761.33
2761.03
2760.74
2760.46
2760.19
2759.94
2759.7
2759.47
2759.25
2759.04
2758.85
2758.66
2758.47
2758.3
2758.14
2757.98
2757.83
2757.69
2757.55
2757.41
2776.48
2775.64
2774.83
2774.06
2773.32
2772.61
2771.93
2771.28
2770.67
2770.08
2769.52
2768.99
2768.48
2767.99
2767.53
2767.09
2766.67
2766.26
2765.88
2765.51
2765.16
2764.83
2764.51
2764.2
2763.91
2763.64
2763.37
2763.12
2762.88
2762.65
2762.44
2762.23
2762.03
2761.84
2761.66
2761.49
2761.33
2761.17
2761.02
2760.88
2760.74
2760.6
2779.39
2778.57
2777.79
2777.03
2776.3
2775.61
2774.95
2774.32
2773.72
2773.15
2772.6
2772.08
2771.57
2771.1
2770.64
2770.2
2769.78
2769.39
2769.01
2768.64
2768.3
2767.96
2767.65
2767.35
2767.06
2766.79
2766.53
2766.28
2766.04
2765.82
2765.6
2765.39
2765.2
2765.01
2764.83
2764.66
2764.5
2764.35
2764.2
2764.06
2763.92
2763.78
2782.2
2781.4
2780.63
2779.9
2779.2
2778.52
2777.88
2777.26
2776.67
2776.11
2775.57
2775.06
2774.56
2774.09
2773.64
2773.21
2772.8
2772.41
2772.04
2771.68
2771.34
2771.01
2770.7
2770.41
2770.13
2769.86
2769.6
2769.35
2769.12
2768.9
2768.69
2768.48
2768.29
2768.11
2767.93
2767.76
2767.6
2767.45
2767.31
2767.17
2767.03
2766.89
2784.85
2784.08
2783.33
2782.62
2781.94
2781.28
2780.65
2780.05
2779.48
2778.93
2778.4
2777.9
2777.42
2776.96
2776.52
2776.1
2775.7
2775.32
2774.95
2774.6
2774.27
2773.95
2773.65
2773.36
2773.08
2772.82
2772.57
2772.33
2772.1
2771.88
2771.67
2771.47
2771.28
2771.1
2770.93
2770.77
2770.61
2770.46
2770.32
2770.18
2770.05
2769.91
2787.33
2786.57
2785.85
2785.16
2784.5
2783.86
2783.25
2782.67
2782.11
2781.58
2781.06
2780.57
2780.11
2779.66
2779.23
2778.83
2778.44
2778.06
2777.71
2777.37
2777.04
2776.73
2776.44
2776.16
2775.89
2775.63
2775.39
2775.15
2774.93
2774.72
2774.51
2774.32
2774.13
2773.96
2773.79
2773.63
2773.48
2773.33