/*--------------------------------*- C++ -*----------------------------------*\
| =========                 |                                                 |
| \\      /  F ield         | OpenFOAM: The Open Source CFD Toolbox           |
|  \\    /   O peration     | Version:  2412                                  |
|   \\  /    A nd           | Website:  www.openfoam.com                      |
|    \\/     M anipulation  |                                                 |
\*---------------------------------------------------------------------------*/
FoamFile
{
    version     2.0;
    format      ascii;
    arch        "LSB;label=32;scalar=64";
    class       volScalarField;
    location    "0.009";
    object      rho;
}
// * * * * * * * * * * * * * * * * * * * * * * * * * * * * * * * * * * * * * //

dimensions      [1 -3 0 0 0 0 0];

internalField   nonuniform List<scalar> 
9771
(
0.0371455
0.0397645
0.0405967
0.0411189
0.0415195
0.0418269
0.0420235
0.0421113
0.0421317
0.0421331
0.0371147
0.0397631
0.040593
0.0411153
0.0415162
0.0418245
0.0420221
0.0421108
0.0421316
0.0421331
0.0370842
0.039762
0.0405894
0.0411119
0.0415131
0.041822
0.0420207
0.0421104
0.0421316
0.0421331
0.0370535
0.0397608
0.0405858
0.0411085
0.0415099
0.0418196
0.0420193
0.0421099
0.0421316
0.0421331
0.0370233
0.0397599
0.0405822
0.0411051
0.0415068
0.0418171
0.0420178
0.0421094
0.0421315
0.0421331
0.0369926
0.0397592
0.0405786
0.0411016
0.0415036
0.0418146
0.0420164
0.0421089
0.0421315
0.0421331
0.0369621
0.0397587
0.0405749
0.0410982
0.0415004
0.0418121
0.0420149
0.0421084
0.0421315
0.0421331
0.042133
0.042133
0.042133
0.042133
0.042133
0.042133
0.042133
0.042133
0.042133
0.042133
0.042133
0.042133
0.042133
0.0421331
0.0421351
0.0421826
0.0424494
0.0428896
0.0431636
0.0432389
0.0432244
0.0431976
0.0369312
0.0397584
0.0405713
0.0410948
0.0414972
0.0418096
0.0420134
0.0421079
0.0421314
0.0421331
0.042133
0.042133
0.042133
0.042133
0.042133
0.042133
0.042133
0.042133
0.042133
0.042133
0.042133
0.042133
0.042133
0.0421331
0.0421351
0.042184
0.0424537
0.0428921
0.0431626
0.0432381
0.0432247
0.0432012
0.0432366
0.0433447
0.0433982
0.0433993
0.0433807
0.0433641
0.0368997
0.0397584
0.0405676
0.0410914
0.041494
0.041807
0.0420118
0.0421074
0.0421314
0.0421331
0.042133
0.042133
0.042133
0.042133
0.042133
0.042133
0.042133
0.042133
0.042133
0.042133
0.042133
0.042133
0.042133
0.0421331
0.0421352
0.0421854
0.0424581
0.0428944
0.0431614
0.0432374
0.043225
0.0432056
0.0432425
0.0433461
0.0433966
0.0433943
0.0433747
0.0433595
0.0433608
0.0368713
0.0397584
0.0405639
0.0410881
0.0414907
0.0418044
0.0420103
0.0421069
0.0421313
0.0421331
0.042133
0.042133
0.042133
0.042133
0.042133
0.042133
0.042133
0.042133
0.042133
0.042133
0.042133
0.042133
0.042133
0.0421331
0.0421353
0.0421868
0.0424625
0.0428964
0.0431603
0.0432369
0.0432252
0.0432105
0.0432482
0.0433454
0.0433949
0.0433899
0.0433685
0.0433547
0.0433568
0.0368466
0.0397591
0.0405606
0.0410847
0.0414875
0.0418018
0.0420087
0.0421063
0.0421313
0.0421331
0.042133
0.042133
0.042133
0.042133
0.042133
0.042133
0.042133
0.042133
0.042133
0.042133
0.042133
0.042133
0.042133
0.0421331
0.0421353
0.0421882
0.0424667
0.0428983
0.0431594
0.0432367
0.0432251
0.0432154
0.0432536
0.0433434
0.0433926
0.0433854
0.0433624
0.0433499
0.0433527
0.0368279
0.0397737
0.0404682
0.0409816
0.0413986
0.0417355
0.0419682
0.0420891
0.0421274
0.0421328
0.042133
0.042133
0.042133
0.042133
0.042133
0.042133
0.042133
0.042133
0.042133
0.042133
0.042133
0.042133
0.042133
0.0421331
0.0421373
0.0422079
0.0425097
0.0429267
0.0431672
0.0432357
0.043242
0.0432473
0.0432794
0.0433434
0.0433592
0.043336
0.0433103
0.0433038
0.0433109
0.0433337
0.0433643
0.0433971
0.0434307
0.0434639
0.0434949
0.0435227
0.0435472
0.043569
0.0435887
0.0436066
0.0436241
0.0436424
0.0436622
0.0436829
0.043704
0.0437257
0.0437486
0.043772
0.0437949
0.0438167
0.0438372
0.0438565
0.0438751
0.0438932
0.0439109
0.0439283
0.0439448
0.0439601
0.0439741
0.0439869
0.0439985
0.0440086
0.0440169
0.0440235
0.0440284
0.0440318
0.0440339
0.0440349
0.0440349
0.0372437
0.0398746
0.0403165
0.0408011
0.0412394
0.0416154
0.0418942
0.0420574
0.0421202
0.0421323
0.042133
0.042133
0.042133
0.042133
0.042133
0.042133
0.042133
0.042133
0.042133
0.042133
0.042133
0.042133
0.042133
0.0421332
0.0421423
0.0422484
0.0425904
0.042981
0.0431924
0.0432632
0.0432881
0.0432998
0.043309
0.0433058
0.0432717
0.0432314
0.0432176
0.0432189
0.0432332
0.0432593
0.0432875
0.0433153
0.0433409
0.043362
0.0433782
0.0433902
0.043399
0.0434058
0.0434118
0.0434178
0.0434245
0.0434319
0.0434397
0.0434469
0.0434525
0.043456
0.0434576
0.0434579
0.0434567
0.0434538
0.043449
0.0434424
0.0434343
0.0434249
0.0434145
0.0434032
0.0433908
0.0433772
0.0433628
0.0433478
0.0433324
0.0433165
0.0432999
0.0432825
0.0432644
0.043246
0.0432273
0.0432085
0.0431899
0.0375721
0.0398772
0.0401704
0.0406373
0.0410821
0.0414857
0.0418057
0.0420133
0.0421076
0.0421309
0.042133
0.042133
0.042133
0.042133
0.042133
0.042133
0.042133
0.042133
0.042133
0.042133
0.042133
0.042133
0.042133
0.0421334
0.0421484
0.0422874
0.0426603
0.0430407
0.0432389
0.0433043
0.0433174
0.0433009
0.0432622
0.0432081
0.0431571
0.0431278
0.0431246
0.0431331
0.0431533
0.0431778
0.0432002
0.0432183
0.043231
0.0432382
0.0432411
0.0432411
0.0432391
0.0432365
0.0432347
0.0432339
0.0432335
0.0432321
0.0432284
0.0432216
0.0432122
0.0432007
0.0431878
0.0431741
0.0431598
0.043145
0.0431298
0.0431143
0.0430986
0.0430828
0.0430668
0.0430506
0.0430339
0.0430168
0.0429993
0.0429816
0.0429637
0.0429458
0.0429277
0.0429096
0.0428914
0.0428734
0.0428556
0.0428379
0.0428207
0.0378816
0.0398637
0.0400581
0.0405005
0.0409399
0.0413608
0.0417135
0.0419615
0.0420895
0.0421281
0.0421329
0.042133
0.042133
0.042133
0.042133
0.042133
0.042133
0.042133
0.042133
0.042133
0.042133
0.042133
0.042133
0.0421337
0.0421544
0.0423211
0.0427218
0.0430995
0.0432784
0.0433226
0.0433071
0.0432491
0.0431662
0.0431021
0.0430576
0.0430461
0.043048
0.0430597
0.0430786
0.0430965
0.0431091
0.0431153
0.0431165
0.043113
0.0431062
0.0430992
0.0430918
0.0430845
0.0430778
0.0430712
0.0430637
0.0430539
0.0430411
0.0430254
0.043008
0.0429895
0.0429707
0.042952
0.0429335
0.042915
0.0428965
0.042878
0.0428595
0.042841
0.0428224
0.0428037
0.0427848
0.0427657
0.0427465
0.0427273
0.0427082
0.0426892
0.0426705
0.0426522
0.0426343
0.0426169
0.0426001
0.0425838
0.0425679
0.0381486
0.0398236
0.0399636
0.0403796
0.0408091
0.0412394
0.0416182
0.0419029
0.0420658
0.0421235
0.0421326
0.042133
0.042133
0.042133
0.042133
0.042133
0.042133
0.042133
0.042133
0.042133
0.042133
0.042133
0.042133
0.0421339
0.042159
0.0423476
0.0427721
0.0431436
0.0432983
0.0433163
0.0432769
0.0431626
0.0430667
0.0430082
0.0429777
0.0429753
0.0429817
0.0429943
0.0430072
0.0430162
0.0430197
0.0430171
0.0430084
0.0429968
0.0429853
0.0429748
0.0429646
0.0429541
0.0429429
0.0429305
0.0429164
0.0429002
0.0428821
0.0428629
0.0428436
0.0428245
0.0428056
0.0427866
0.0427674
0.0427481
0.0427287
0.0427094
0.0426905
0.0426718
0.0426535
0.0426354
0.0426176
0.0426001
0.0425828
0.0425658
0.0425492
0.042533
0.0425173
0.042502
0.0424873
0.0424731
0.0424594
0.0424463
0.0424337
0.0383835
0.0397795
0.0398873
0.040273
0.0406904
0.0411239
0.0415227
0.0418397
0.0420369
0.0421167
0.0421321
0.042133
0.042133
0.042133
0.042133
0.042133
0.042133
0.042133
0.042133
0.042133
0.042133
0.042133
0.042133
0.0421339
0.042161
0.0423642
0.0428066
0.0431697
0.0433011
0.0433
0.0432218
0.043077
0.0429812
0.0429295
0.042907
0.0429082
0.042915
0.0429258
0.0429348
0.0429383
0.0429366
0.0429276
0.0429131
0.0428983
0.0428846
0.0428723
0.0428603
0.0428479
0.0428338
0.0428178
0.0427997
0.0427799
0.0427592
0.0427388
0.0427196
0.0427014
0.0426836
0.0426654
0.0426466
0.0426275
0.0426085
0.0425898
0.0425715
0.0425535
0.0425359
0.0425186
0.0425017
0.0424851
0.042469
0.0424534
0.0424383
0.0424238
0.0424099
0.0423965
0.0423836
0.0423711
0.042359
0.0423473
0.0423359
0.0385851
0.0397353
0.0398211
0.0401765
0.0405817
0.0410141
0.0414283
0.0417736
0.0420038
0.0421075
0.0421312
0.042133
0.042133
0.042133
0.042133
0.042133
0.042133
0.042133
0.042133
0.042133
0.042133
0.042133
0.042133
0.0421339
0.0421599
0.0423631
0.0428169
0.0431791
0.0432893
0.0432726
0.0431541
0.043005
0.0429161
0.042868
0.0428492
0.0428488
0.0428515
0.0428557
0.0428591
0.0428589
0.0428524
0.0428393
0.0428249
0.0428108
0.0427969
0.0427834
0.0427701
0.0427565
0.0427416
0.0427251
0.0427067
0.0426863
0.0426651
0.0426446
0.0426259
0.0426089
0.0425921
0.0425747
0.0425567
0.0425384
0.0425204
0.0425027
0.0424852
0.0424678
0.0424506
0.0424337
0.0424171
0.042401
0.0423856
0.042371
0.0423572
0.0423442
0.0423318
0.0423198
0.0423083
0.0422969
0.0422857
0.0422747
0.0422638
0.0387528
0.0396931
0.039762
0.0400899
0.0404818
0.0409102
0.0413361
0.0417062
0.0419674
0.042096
0.0421298
0.042133
0.042133
0.042133
0.042133
0.042133
0.042133
0.042133
0.042133
0.042133
0.042133
0.042133
0.042133
0.0421337
0.0421571
0.0423499
0.0427962
0.0431622
0.043269
0.0432392
0.0430855
0.0429401
0.0428629
0.0428194
0.042804
0.0428013
0.0428006
0.0427978
0.0427932
0.0427844
0.0427719
0.0427569
0.0427437
0.042732
0.0427182
0.042703
0.0426876
0.0426729
0.0426583
0.0426434
0.0426269
0.042608
0.0425874
0.0425672
0.0425493
0.0425332
0.0425173
0.0425005
0.0424835
0.042467
0.0424513
0.0424358
0.04242
0.0424037
0.042387
0.04237
0.0423532
0.0423369
0.0423216
0.0423074
0.0422942
0.0422818
0.0422701
0.0422588
0.0422478
0.0422371
0.0422266
0.0422163
0.0422061
0.0388949
0.0396543
0.0397084
0.0400125
0.040389
0.0408116
0.0412466
0.0416385
0.0419288
0.0420826
0.0421279
0.0421329
0.042133
0.042133
0.042133
0.042133
0.042133
0.042133
0.042133
0.042133
0.042133
0.042133
0.042133
0.0421335
0.0421524
0.0423248
0.0427547
0.0431184
0.0432446
0.0432054
0.0430314
0.0428799
0.0428144
0.0427742
0.0427561
0.0427531
0.0427572
0.0427552
0.0427446
0.0427273
0.0427087
0.042692
0.0426798
0.0426693
0.0426552
0.042638
0.0426202
0.0426042
0.0425903
0.0425774
0.0425637
0.0425472
0.0425283
0.0425089
0.0424917
0.0424764
0.0424606
0.0424433
0.0424262
0.0424116
0.0423992
0.0423875
0.0423751
0.0423609
0.042345
0.0423279
0.0423103
0.0422934
0.0422777
0.0422634
0.0422504
0.0422386
0.0422277
0.0422173
0.0422074
0.0421979
0.0421887
0.0421798
0.0421708
0.0390145
0.0396193
0.0396595
0.0399433
0.0403019
0.0407179
0.0411602
0.0415714
0.0418889
0.0420677
0.0421255
0.0421328
0.042133
0.042133
0.042133
0.042133
0.042133
0.042133
0.042133
0.042133
0.042133
0.042133
0.042133
0.0421334
0.0421469
0.0422895
0.042691
0.0430553
0.0432122
0.0431719
0.043003
0.0428389
0.0427727
0.0427298
0.0427026
0.0426964
0.0427104
0.0427163
0.0427037
0.0426828
0.0426607
0.0426435
0.0426334
0.0426237
0.0426094
0.0425904
0.0425707
0.0425535
0.0425396
0.042528
0.0425164
0.0425028
0.0424863
0.0424683
0.0424517
0.0424365
0.0424201
0.0424014
0.0423833
0.0423699
0.0423608
0.0423536
0.0423456
0.042335
0.042321
0.0423046
0.0422873
0.0422705
0.0422549
0.0422407
0.0422278
0.0422164
0.0422061
0.0421969
0.0421885
0.0421805
0.0421725
0.0421643
0.0421559
0.0391038
0.039585
0.0396149
0.0398807
0.0402195
0.0406287
0.041077
0.0415057
0.0418486
0.0420518
0.0421226
0.0421327
0.042133
0.042133
0.042133
0.042133
0.042133
0.042133
0.042133
0.042133
0.042133
0.042133
0.042133
0.0421332
0.0421416
0.0422487
0.0426059
0.0429751
0.0431628
0.0431311
0.042997
0.0428292
0.0427504
0.0426914
0.0426478
0.0426374
0.0426582
0.0426701
0.0426599
0.0426401
0.0426188
0.042604
0.0425964
0.0425873
0.0425728
0.0425529
0.0425323
0.0425146
0.0425005
0.0424893
0.042479
0.0424676
0.0424532
0.0424367
0.0424209
0.0424059
0.0423895
0.0423709
0.0423536
0.0423417
0.0423351
0.0423308
0.0423258
0.0423178
0.0423057
0.0422908
0.0422751
0.04226
0.0422462
0.0422338
0.0422229
0.0422135
0.0422057
0.0421992
0.0421935
0.0421879
0.0421817
0.042175
0.042168
0.0391707
0.0395514
0.0395733
0.0398222
0.0401409
0.0405435
0.040997
0.0414418
0.0418088
0.0420355
0.0421194
0.0421325
0.042133
0.042133
0.042133
0.042133
0.042133
0.042133
0.042133
0.042133
0.042133
0.042133
0.042133
0.0421331
0.0421375
0.042209
0.0425047
0.0428756
0.0430928
0.043076
0.0429957
0.0428515
0.0427533
0.0426669
0.0426075
0.0425893
0.0426048
0.0426156
0.0426079
0.0425914
0.042576
0.0425664
0.042561
0.0425523
0.0425378
0.0425185
0.0424991
0.0424828
0.0424695
0.0424592
0.0424501
0.04244
0.0424267
0.0424112
0.0423965
0.0423828
0.0423686
0.0423531
0.0423386
0.0423284
0.0423224
0.0423182
0.0423136
0.0423069
0.0422971
0.0422851
0.0422723
0.0422601
0.0422489
0.0422392
0.0422308
0.0422234
0.0422167
0.0422105
0.0422047
0.0421989
0.0421932
0.0421876
0.0421821
0.0392239
0.0395197
0.0395338
0.0397658
0.0400657
0.0404621
0.04092
0.0413801
0.04177
0.0420192
0.0421161
0.0421323
0.042133
0.042133
0.042133
0.042133
0.042133
0.042133
0.042133
0.042133
0.042133
0.042133
0.042133
0.0421331
0.042135
0.0421761
0.0423981
0.0427536
0.0430015
0.0430069
0.0429745
0.0428942
0.0427734
0.0426661
0.0425954
0.0425696
0.0425661
0.0425608
0.0425498
0.0425381
0.0425311
0.0425275
0.0425239
0.0425159
0.0425019
0.042485
0.0424689
0.0424559
0.0424451
0.0424364
0.042428
0.0424182
0.0424053
0.0423906
0.0423772
0.0423656
0.0423546
0.0423432
0.0423321
0.0423233
0.0423171
0.0423122
0.0423075
0.0423018
0.0422944
0.0422851
0.0422746
0.042264
0.0422544
0.042246
0.042239
0.042233
0.0422275
0.0422223
0.0422175
0.0422132
0.0422096
0.0422064
0.0422034
0.0392565
0.0394887
0.0394957
0.0397099
0.0399934
0.0403841
0.040846
0.0413207
0.0417328
0.0420036
0.0421128
0.0421321
0.042133
0.042133
0.042133
0.042133
0.042133
0.042133
0.042133
0.042133
0.042133
0.042133
0.042133
0.042133
0.0421337
0.0421537
0.0423
0.0426122
0.0428849
0.0429264
0.0429362
0.0429135
0.0427911
0.0426826
0.0426145
0.0425801
0.0425559
0.0425305
0.0425103
0.042498
0.0424937
0.0424923
0.0424885
0.0424798
0.042467
0.0424535
0.0424417
0.0424327
0.0424247
0.042417
0.0424088
0.0423986
0.0423863
0.0423727
0.0423607
0.0423508
0.0423425
0.0423343
0.0423263
0.0423189
0.042313
0.0423078
0.0423029
0.0422976
0.0422914
0.0422838
0.0422753
0.0422666
0.0422587
0.0422519
0.0422463
0.0422417
0.0422376
0.0422339
0.0422304
0.0422275
0.042225
0.0422227
0.0422206
0.0392759
0.0394572
0.0394581
0.039654
0.0399236
0.0403091
0.0407749
0.0412641
0.0416976
0.041989
0.0421098
0.0421319
0.042133
0.042133
0.042133
0.042133
0.042133
0.042133
0.042133
0.042133
0.042133
0.042133
0.042133
0.042133
0.0421332
0.0421412
0.0422235
0.0424655
0.0427404
0.042834
0.0428908
0.0428826
0.0427891
0.0427053
0.0426457
0.0426057
0.0425662
0.0425282
0.0425027
0.0424853
0.0424769
0.04247
0.0424621
0.042451
0.0424391
0.0424282
0.0424197
0.042413
0.0424067
0.0423991
0.0423908
0.0423808
0.0423699
0.0423583
0.0423481
0.0423395
0.0423327
0.0423263
0.0423198
0.0423133
0.042307
0.0423011
0.0422955
0.0422899
0.0422841
0.0422779
0.0422714
0.0422648
0.0422586
0.0422533
0.0422488
0.042245
0.0422417
0.0422387
0.0422361
0.0422339
0.0422319
0.0422302
0.0422286
0.0392858
0.0394239
0.0394199
0.0395976
0.039856
0.0402369
0.0407067
0.0412103
0.0416649
0.0419759
0.0421072
0.0421318
0.042133
0.042133
0.042133
0.042133
0.042133
0.042133
0.042133
0.042133
0.042133
0.042133
0.042133
0.042133
0.0421331
0.0421357
0.0421746
0.0423351
0.0425787
0.0427224
0.0428136
0.0428173
0.042767
0.0427178
0.0426616
0.0426214
0.0425785
0.0425389
0.0425121
0.0424912
0.0424773
0.0424633
0.0424504
0.0424366
0.0424247
0.0424145
0.042407
0.0424004
0.0423939
0.0423861
0.0423776
0.0423684
0.0423592
0.0423499
0.0423416
0.0423342
0.042328
0.0423222
0.0423161
0.0423099
0.042303
0.0422963
0.0422896
0.0422834
0.0422773
0.0422715
0.0422659
0.0422604
0.0422553
0.0422504
0.0422461
0.0422422
0.0422388
0.0422358
0.0422332
0.0422309
0.0422289
0.0422271
0.0422253
0.0392875
0.0393877
0.0393803
0.0395407
0.0397899
0.040167
0.0406414
0.0411597
0.041635
0.0419645
0.0421051
0.0421317
0.042133
0.042133
0.042133
0.042133
0.042133
0.042133
0.042133
0.042133
0.042133
0.042133
0.042133
0.042133
0.042133
0.0421338
0.0421492
0.0422396
0.0424244
0.0425869
0.0427003
0.0427263
0.0427187
0.0427081
0.0426612
0.0426257
0.0425851
0.0425499
0.0425241
0.0425026
0.0424846
0.0424671
0.0424514
0.0424361
0.042424
0.0424135
0.0424052
0.0423975
0.0423899
0.0423818
0.0423733
0.042365
0.0423572
0.04235
0.0423431
0.042337
0.0423312
0.042326
0.0423202
0.0423145
0.0423079
0.0423015
0.0422948
0.0422886
0.0422827
0.0422771
0.042272
0.042267
0.0422624
0.0422578
0.0422536
0.0422495
0.0422457
0.0422422
0.0422389
0.0422359
0.0422331
0.0422304
0.042228
0.0392815
0.0393481
0.0393398
0.0394827
0.0397251
0.0400994
0.040579
0.0411125
0.0416082
0.041955
0.0421036
0.0421316
0.042133
0.042133
0.042133
0.042133
0.042133
0.042133
0.042133
0.042133
0.042133
0.042133
0.042133
0.042133
0.042133
0.0421332
0.0421384
0.042182
0.0423024
0.0424467
0.0425632
0.042616
0.0426434
0.0426563
0.0426378
0.042614
0.042581
0.0425544
0.0425304
0.0425111
0.0424918
0.0424737
0.0424575
0.0424425
0.0424306
0.04242
0.0424109
0.0424025
0.0423941
0.042386
0.0423779
0.0423706
0.0423639
0.042358
0.0423523
0.0423473
0.0423422
0.0423377
0.0423326
0.0423279
0.0423226
0.0423176
0.0423124
0.0423076
0.0423031
0.0422988
0.042295
0.0422913
0.0422878
0.0422844
0.0422811
0.0422778
0.0422746
0.0422715
0.0422686
0.0422657
0.0422629
0.0422603
0.0422577
0.0392618
0.039312
0.0392972
0.0394239
0.039661
0.0400339
0.0405197
0.041069
0.0415849
0.0419476
0.0421027
0.0421316
0.042133
0.042133
0.042133
0.042133
0.042133
0.042133
0.042133
0.042133
0.042133
0.042133
0.042133
0.042133
0.042133
0.0421331
0.0421345
0.0421525
0.0422211
0.042329
0.0424309
0.0424945
0.0425379
0.0425667
0.0425764
0.0425727
0.0425564
0.0425412
0.042522
0.0425083
0.0424906
0.0424754
0.0424607
0.0424478
0.0424366
0.0424267
0.0424175
0.042409
0.0424007
0.042393
0.0423859
0.0423795
0.0423738
0.0423688
0.042364
0.0423598
0.0423554
0.0423515
0.0423473
0.0423436
0.0423397
0.042336
0.0423325
0.0423292
0.0423261
0.0423233
0.0423207
0.0423183
0.0423161
0.0423139
0.0423118
0.0423097
0.0423077
0.0423057
0.0423037
0.0423018
0.0422999
0.0422982
0.0422965
0.0392373
0.0392711
0.0392515
0.0393644
0.0395976
0.0399706
0.0404637
0.0410296
0.0415651
0.0419423
0.0421024
0.0421317
0.042133
0.042133
0.042133
0.042133
0.042133
0.042133
0.042133
0.042133
0.042133
0.042133
0.042133
0.042133
0.042133
0.042133
0.0421333
0.0421393
0.0421731
0.0422446
0.0423244
0.0423835
0.0424261
0.0424571
0.04248
0.0424939
0.0424979
0.042497
0.0424884
0.0424815
0.0424704
0.0424614
0.04245
0.0424413
0.0424318
0.0424241
0.0424157
0.0424084
0.0424012
0.0423947
0.0423887
0.0423834
0.0423785
0.0423742
0.04237
0.0423663
0.0423625
0.0423591
0.0423557
0.0423527
0.0423498
0.042347
0.0423444
0.0423421
0.0423398
0.0423377
0.0423357
0.0423339
0.0423321
0.0423304
0.0423288
0.0423273
0.0423258
0.0423244
0.0423229
0.0423216
0.0423203
0.0423191
0.0423179
0.0392092
0.0392244
0.0392026
0.0393039
0.0395347
0.0399097
0.0404112
0.0409945
0.0415491
0.041939
0.0421027
0.0421317
0.042133
0.042133
0.042133
0.042133
0.042133
0.042133
0.042133
0.042133
0.042133
0.042133
0.042133
0.042133
0.042133
0.042133
0.0421331
0.0421345
0.0421478
0.0421894
0.0422479
0.0422977
0.0423329
0.042357
0.0423761
0.0423929
0.0424071
0.0424162
0.0424194
0.0424203
0.0424184
0.0424173
0.0424129
0.04241
0.0424044
0.0424005
0.0423946
0.04239
0.0423847
0.0423803
0.0423756
0.0423717
0.0423677
0.0423642
0.0423607
0.0423576
0.0423545
0.0423517
0.042349
0.0423465
0.0423442
0.0423421
0.04234
0.042338
0.0423361
0.0423344
0.0423327
0.042331
0.0423294
0.042328
0.0423265
0.0423251
0.0423238
0.0423225
0.0423212
0.0423201
0.0423189
0.0423179
0.0423168
0.0391759
0.0391727
0.0391507
0.0392426
0.0394718
0.0398514
0.0403626
0.0409642
0.0415369
0.0419378
0.0421032
0.0421318
0.042133
0.042133
0.042133
0.042133
0.042133
0.042133
0.042133
0.042133
0.042133
0.042133
0.042133
0.042133
0.042133
0.042133
0.042133
0.0421332
0.0421368
0.042156
0.0421949
0.042236
0.0422659
0.042284
0.0422952
0.0423041
0.0423126
0.0423201
0.0423264
0.0423301
0.042333
0.0423365
0.042339
0.0423413
0.0423411
0.0423415
0.0423398
0.0423388
0.0423366
0.0423353
0.0423325
0.0423307
0.042328
0.0423259
0.0423235
0.0423214
0.0423193
0.0423173
0.0423154
0.0423135
0.0423118
0.0423101
0.0423085
0.0423069
0.0423053
0.0423038
0.0423023
0.0423009
0.0422995
0.0422981
0.0422968
0.0422955
0.0422943
0.0422932
0.042292
0.042291
0.0422899
0.0422889
0.042288
0.0391359
0.0391161
0.0390955
0.0391803
0.0394087
0.0397959
0.0403182
0.040939
0.0415288
0.0419383
0.042104
0.0421319
0.042133
0.042133
0.042133
0.042133
0.042133
0.042133
0.042133
0.042133
0.042133
0.042133
0.042133
0.042133
0.042133
0.042133
0.042133
0.0421331
0.0421336
0.0421394
0.0421599
0.0421909
0.0422182
0.0422351
0.0422434
0.0422467
0.0422473
0.0422462
0.0422457
0.0422444
0.0422422
0.0422409
0.0422414
0.0422428
0.0422442
0.0422456
0.0422464
0.0422473
0.0422473
0.0422479
0.0422471
0.0422471
0.0422459
0.0422452
0.0422441
0.0422431
0.0422421
0.0422409
0.0422397
0.0422385
0.0422373
0.0422361
0.0422349
0.0422337
0.0422324
0.0422312
0.04223
0.0422288
0.0422276
0.0422264
0.0422253
0.0422241
0.042223
0.042222
0.0422209
0.0422199
0.0422189
0.042218
0.0422171
0.039087
0.039053
0.039037
0.0391171
0.0393449
0.0397435
0.0402787
0.0409195
0.041525
0.0419396
0.0421047
0.0421319
0.042133
0.042133
0.042133
0.042133
0.042133
0.042133
0.042133
0.042133
0.042133
0.042133
0.042133
0.042133
0.042133
0.042133
0.042133
0.042133
0.0421331
0.042134
0.0421408
0.0421588
0.0421816
0.0421995
0.0422093
0.0422128
0.0422125
0.0422083
0.0422018
0.0421958
0.042188
0.0421788
0.0421698
0.0421621
0.0421562
0.0421516
0.042148
0.0421452
0.0421427
0.0421408
0.0421388
0.0421373
0.0421356
0.0421341
0.0421327
0.0421312
0.0421299
0.0421285
0.0421272
0.0421258
0.0421244
0.0421231
0.0421217
0.0421203
0.042119
0.0421177
0.0421164
0.0421151
0.0421138
0.0421125
0.0421113
0.0421101
0.0421089
0.0421077
0.0421066
0.0421054
0.0421044
0.0421033
0.0421023
0.0390271
0.0389817
0.0389742
0.0390527
0.0392809
0.0396948
0.0402455
0.0409068
0.041525
0.0419415
0.0421054
0.042132
0.042133
0.042133
0.042133
0.042133
0.042133
0.042133
0.042133
0.042133
0.042133
0.042133
0.042133
0.042133
0.042133
0.042133
0.042133
0.042133
0.042133
0.0421331
0.0421342
0.0421405
0.0421543
0.0421705
0.0421827
0.0421892
0.0421911
0.0421899
0.0421839
0.0421777
0.0421704
0.0421616
0.0421511
0.0421395
0.042128
0.0421175
0.0421079
0.0420992
0.0420913
0.0420843
0.0420778
0.042072
0.0420667
0.0420617
0.0420571
0.0420529
0.0420489
0.0420452
0.0420417
0.0420384
0.0420353
0.0420323
0.0420295
0.0420268
0.0420243
0.0420218
0.0420195
0.0420173
0.0420152
0.0420131
0.0420112
0.0420093
0.0420075
0.0420058
0.0420042
0.0420026
0.0420011
0.0419996
0.0419983
0.0389545
0.0389002
0.0389055
0.0389875
0.0392182
0.0396517
0.0402211
0.0409021
0.0415265
0.0419433
0.0421058
0.042132
0.042133
0.042133
0.042133
0.042133
0.042133
0.042133
0.042133
0.042133
0.042133
0.042133
0.042133
0.042133
0.042133
0.042133
0.042133
0.042133
0.042133
0.042133
0.0421331
0.0421341
0.0421388
0.0421485
0.0421598
0.0421687
0.0421737
0.0421754
0.042174
0.0421699
0.0421648
0.0421591
0.0421522
0.0421438
0.0421338
0.0421234
0.0421133
0.0421036
0.0420945
0.0420859
0.0420778
0.0420703
0.0420631
0.0420564
0.0420501
0.0420442
0.0420386
0.0420333
0.0420284
0.0420237
0.0420192
0.042015
0.0420111
0.0420073
0.0420038
0.0420004
0.0419973
0.0419943
0.0419914
0.0419887
0.0419861
0.0419837
0.0419814
0.0419792
0.0419771
0.0419751
0.0419733
0.0419715
0.0419698
0.0388686
0.0388088
0.0388313
0.0389225
0.0391607
0.0396178
0.0402083
0.0409024
0.041529
0.0419447
0.0421061
0.042132
0.042133
0.042133
0.042133
0.042133
0.042133
0.042133
0.042133
0.042133
0.042133
0.042133
0.042133
0.042133
0.042133
0.042133
0.042133
0.042133
0.042133
0.042133
0.042133
0.0421331
0.0421337
0.0421366
0.0421427
0.0421504
0.042157
0.0421613
0.0421631
0.0421627
0.0421604
0.0421569
0.0421529
0.0421484
0.042143
0.042136
0.0421278
0.042119
0.0421101
0.0421014
0.042093
0.042085
0.0420774
0.0420703
0.0420635
0.0420571
0.0420511
0.0420454
0.04204
0.0420349
0.0420301
0.0420255
0.0420212
0.0420172
0.0420133
0.0420097
0.0420062
0.042003
0.0419999
0.0419969
0.0419942
0.0419915
0.041989
0.0419866
0.0419844
0.0419823
0.0419802
0.0419783
0.0419765
0.0387732
0.0387122
0.0387552
0.0388615
0.0391148
0.0395978
0.0402058
0.0409041
0.0415312
0.0419455
0.0421062
0.042132
0.042133
0.042133
0.042133
0.042133
0.042133
0.042133
0.042133
0.042133
0.042133
0.042133
0.042133
0.042133
0.042133
0.042133
0.042133
0.042133
0.042133
0.042133
0.042133
0.042133
0.0421331
0.0421334
0.0421348
0.0421381
0.0421428
0.0421475
0.0421511
0.0421532
0.0421537
0.0421529
0.0421509
0.0421484
0.0421456
0.0421428
0.0421394
0.0421349
0.0421294
0.0421231
0.0421164
0.0421096
0.0421027
0.042096
0.0420895
0.0420833
0.0420773
0.0420716
0.0420662
0.0420611
0.0420562
0.0420515
0.0420471
0.0420429
0.042039
0.0420352
0.0420317
0.0420283
0.0420251
0.0420221
0.0420192
0.0420165
0.0420139
0.0420115
0.0420091
0.0420069
0.0420049
0.0420029
0.042001
0.0386811
0.0386233
0.0386866
0.0388125
0.0390869
0.0395916
0.0402065
0.0409065
0.0415327
0.0419459
0.0421062
0.042132
0.042133
0.042133
0.042133
0.042133
0.042133
0.042133
0.042133
0.042133
0.042133
0.042133
0.042133
0.042133
0.042133
0.042133
0.042133
0.042133
0.042133
0.042133
0.042133
0.042133
0.042133
0.042133
0.0421332
0.0421337
0.0421351
0.0421375
0.0421404
0.0421431
0.0421451
0.0421461
0.0421463
0.0421456
0.0421443
0.0421428
0.0421412
0.0421396
0.042138
0.042136
0.0421334
0.0421302
0.0421266
0.0421226
0.0421184
0.042114
0.0421097
0.0421053
0.0421011
0.0420969
0.0420929
0.042089
0.0420852
0.0420817
0.0420782
0.0420749
0.0420718
0.0420688
0.042066
0.0420633
0.0420607
0.0420582
0.0420559
0.0420537
0.0420516
0.0420496
0.0420477
0.0420459
0.0420442
0.0386135
0.0385619
0.03864
0.0387842
0.0390766
0.0395914
0.0402079
0.0409082
0.0415334
0.041946
0.0421062
0.042132
0.042133
0.042133
0.042133
0.042133
0.042133
0.042133
0.042133
0.042133
0.042133
0.042133
0.042133
0.042133
0.042133
0.042133
0.042133
0.042133
0.042133
0.042133
0.042133
0.042133
0.042133
0.042133
0.042133
0.0421331
0.0421332
0.0421336
0.0421345
0.0421359
0.0421374
0.0421389
0.04214
0.0421406
0.0421407
0.0421405
0.0421399
0.0421391
0.0421382
0.0421374
0.0421367
0.0421359
0.0421351
0.0421342
0.042133
0.0421316
0.04213
0.0421283
0.0421265
0.0421245
0.0421226
0.0421205
0.0421185
0.0421165
0.0421146
0.0421126
0.0421107
0.0421089
0.0421071
0.0421054
0.0421037
0.0421022
0.0421006
0.0420992
0.0420978
0.0420964
0.0420951
0.0420939
0.0420928
0.0385838
0.0385368
0.0386215
0.0387752
0.039075
0.0395918
0.0402093
0.040909
0.0415336
0.041946
0.0421062
0.042132
0.042133
0.042133
0.042133
0.042133
0.042133
0.042133
0.042133
0.042133
0.042133
0.042133
0.042133
0.042133
0.042133
0.042133
0.042133
0.042133
0.042133
0.042133
0.042133
0.042133
0.042133
0.042133
0.042133
0.042133
0.042133
0.0421331
0.0421331
0.0421334
0.0421338
0.0421344
0.0421351
0.0421358
0.0421364
0.0421368
0.042137
0.042137
0.0421368
0.0421365
0.0421362
0.0421358
0.0421354
0.0421351
0.0421348
0.0421345
0.0421343
0.042134
0.0421337
0.0421333
0.0421329
0.0421325
0.0421321
0.0421316
0.0421311
0.0421306
0.04213
0.0421295
0.0421289
0.0421284
0.0421279
0.0421273
0.0421268
0.0421263
0.0421258
0.0421253
0.0421248
0.0421244
0.0421239
0.0385781
0.0385325
0.0386184
0.0387741
0.039075
0.0395924
0.0402099
0.0409093
0.0415336
0.0419459
0.0421062
0.042132
0.042133
0.042133
0.042133
0.042133
0.042133
0.042133
0.042133
0.042133
0.042133
0.042133
0.042133
0.042133
0.042133
0.042133
0.042133
0.042133
0.042133
0.042133
0.042133
0.042133
0.042133
0.042133
0.042133
0.042133
0.042133
0.042133
0.042133
0.0421331
0.0421331
0.0421331
0.0421333
0.0421335
0.0421338
0.042134
0.0421343
0.0421346
0.0421347
0.0421348
0.0421349
0.0421348
0.0421347
0.0421346
0.0421345
0.0421344
0.0421342
0.0421341
0.042134
0.0421339
0.0421338
0.0421337
0.0421336
0.0421335
0.0421335
0.0421334
0.0421334
0.0421333
0.0421332
0.0421332
0.0421331
0.042133
0.042133
0.0421329
0.0421328
0.0421328
0.0421327
0.0421326
0.0421326
0.0385778
0.0385322
0.0386183
0.0387741
0.0390751
0.0395927
0.0402101
0.0409093
0.0415336
0.0419459
0.0421062
0.042132
0.042133
0.042133
0.042133
0.042133
0.042133
0.042133
0.042133
0.042133
0.042133
0.042133
0.042133
0.042133
0.042133
0.042133
0.042133
0.042133
0.042133
0.042133
0.042133
0.042133
0.042133
0.042133
0.042133
0.042133
0.042133
0.042133
0.042133
0.042133
0.042133
0.042133
0.042133
0.0421331
0.0421331
0.0421331
0.0421332
0.0421333
0.0421334
0.0421335
0.0421336
0.0421337
0.0421337
0.0421337
0.0421338
0.0421338
0.0421337
0.0421337
0.0421337
0.0421336
0.0421336
0.0421336
0.0421335
0.0421335
0.0421335
0.0421334
0.0421334
0.0421334
0.0421333
0.0421333
0.0421333
0.0421333
0.0421333
0.0421333
0.0421332
0.0421332
0.0421332
0.0421332
0.0421332
0.0385778
0.0385322
0.0386183
0.0387741
0.0390752
0.0395928
0.0402101
0.0409093
0.0415336
0.0419459
0.0421062
0.042132
0.042133
0.042133
0.042133
0.042133
0.042133
0.042133
0.042133
0.042133
0.042133
0.042133
0.042133
0.042133
0.042133
0.042133
0.042133
0.042133
0.042133
0.042133
0.042133
0.042133
0.042133
0.042133
0.042133
0.042133
0.042133
0.042133
0.042133
0.042133
0.042133
0.042133
0.042133
0.042133
0.042133
0.042133
0.042133
0.0421331
0.0421331
0.0421331
0.0421331
0.0421331
0.0421332
0.0421332
0.0421332
0.0421332
0.0421333
0.0421333
0.0421333
0.0421333
0.0421333
0.0421333
0.0421333
0.0421333
0.0421333
0.0421333
0.0421333
0.0421333
0.0421332
0.0421332
0.0421332
0.0421332
0.0421332
0.0421332
0.0421332
0.0421332
0.0421332
0.0421332
0.0421332
0.0385778
0.0385322
0.0386183
0.0387741
0.0390752
0.0395929
0.0402101
0.0409093
0.0415336
0.0419459
0.0421062
0.042132
0.042133
0.042133
0.042133
0.042133
0.042133
0.042133
0.042133
0.042133
0.042133
0.042133
0.042133
0.042133
0.042133
0.042133
0.042133
0.042133
0.042133
0.042133
0.042133
0.042133
0.042133
0.042133
0.042133
0.042133
0.042133
0.042133
0.042133
0.042133
0.042133
0.042133
0.042133
0.042133
0.042133
0.042133
0.042133
0.042133
0.042133
0.042133
0.042133
0.042133
0.042133
0.042133
0.0421331
0.0421331
0.0421331
0.0421331
0.0421331
0.0421331
0.0421331
0.0421331
0.0421331
0.0421331
0.0421331
0.0421331