/*--------------------------------*- C++ -*----------------------------------*\
| =========                 |                                                 |
| \\      /  F ield         | OpenFOAM: The Open Source CFD Toolbox           |
|  \\    /   O peration     | Version:  2412                                  |
|   \\  /    A nd           | Website:  www.openfoam.com                      |
|    \\/     M anipulation  |                                                 |
\*---------------------------------------------------------------------------*/
FoamFile
{
    version     2.0;
    format      ascii;
    arch        "LSB;label=32;scalar=64";
    class       volScalarField;
    location    "0.016";
    object      p;
}
// * * * * * * * * * * * * * * * * * * * * * * * * * * * * * * * * * * * * * //

dimensions      [1 -1 -2 0 0 0 0];

internalField   nonuniform List<scalar> 
9763
(
2858.14
2929.23
2857.76
2927.47
2857.41
2924.65
2856.9
2922.92
2856.51
2920.63
2855.95
2918.47
2855.51
2916.13
2854.95
2913.79
2854.46
2911.32
2853.88
2908.81
2853.33
2906.19
2852.73
2903.5
2852.08
2900.72
2851.44
2897.87
2850.72
2894.92
2850.01
2891.9
2849.2
2888.78
2848.4
2885.6
2847.5
2882.31
2846.58
2878.95
2845.58
2875.49
2844.54
2871.94
2843.45
2868.26
2842.33
2864.5
2841.16
2860.59
2839.96
2856.57
2838.71
2852.42
2837.41
2848.17
2836.02
2843.81
2834.53
2839.39
2832.91
2834.9
2831.18
2830.34
2829.31
2825.7
2827.34
2820.96
2825.24
2816.16
2823.02
2811.24
2820.67
2806.27
2818.18
2801.2
2815.56
2796.1
2812.79
2790.96
2785.77
2780.59
2775.34
3436.98
2988.42
2993.96
2987.29
2963.84
2934.76
2898.61
2860.6
2827.35
2804.5
2793.43
2791.08
2792.52
2796.16
2798.32
2797.73
2778.2
2735.34
2693.75
2668.58
2658.1
2657.18
2660.57
2666.46
2669.16
2668.33
2664.41
2658.68
2653.05
2648.17
2644.26
2641.54
2639.81
2638.26
2635.87
2632.19
2628.01
2624.4
2621.51
2619.04
2616.79
2614.81
2613.36
2612.54
2612.25
2612.36
2612.76
2613.48
2614.59
2616.13
2618.09
2620.43
2623.12
2626.11
2629.36
2632.84
2636.53
2640.42
2644.5
2648.79
2653.28
2657.93
2662.73
2667.7
2672.87
2678.22
2683.69
2689.23
2694.8
2700.39
2706.01
2711.71
2717.48
2723.32
2729.23
2735.2
2741.16
2747.1
2752.94
2758.64
2764.34
2769.77
2775.23
2780.55
2785.81
2790.94
2796.01
2800.99
2805.95
2810.77
2815.59
2820.3
2824.86
2829.36
2833.71
2838.04
2842.18
2846.2
2850.02
2853.65
2857.08
2860.29
2863.29
2866.07
2868.63
2870.97
2873.04
2874.86
2876.38
2877.63
2878.59
2879.18
2879.49
2879.4
2878.94
2878.03
2876.69
2874.84
2872.61
2872.18
2864.18
3436.59
2988.01
2993.67
2987.17
2963.67
2934.48
2898.26
2860.21
2827.02
2804.3
2793.35
2791.04
2792.47
2796.16
2798.4
2797.9
2779.21
2736.7
2694.69
2668.67
2658.05
2656.62
2659.76
2665.73
2668.63
2667.92
2664.17
2658.41
2652.66
2647.66
2643.63
2640.78
2638.95
2637.34
2634.93
2631.2
2626.9
2623.13
2620.1
2617.48
2615.07
2612.93
2611.31
2610.34
2609.92
2609.85
2610.02
2610.55
2611.5
2612.92
2614.76
2616.98
2619.54
2622.4
2625.5
2628.83
2632.37
2636.11
2640.05
2644.21
2648.56
2653.07
2657.75
2662.65
2667.75
2673
2678.33
2683.73
2689.18
2694.69
2700.26
2705.89
2711.57
2717.28
2723.02
2728.79
2734.54
2740.31
2745.96
2751.64
2757.18
2762.68
2768.12
2773.4
2778.62
2783.73
2788.73
2793.64
2798.5
2803.19
2807.79
2812.21
2816.46
2820.61
2824.59
2828.5
2832.21
2835.82
2839.21
2842.45
2845.49
2848.34
2851
2853.46
2855.75
2857.85
2859.82
2861.62
2863.22
2864.69
2866.04
2867.19
2868.22
2869.11
2869.9
2870.55
2871.07
2871.46
2871.77
2872.09
2872.28
3435.41
2987.79
2993.47
2987.05
2963.5
2934.2
2897.91
2859.84
2826.71
2804.1
2793.28
2791.01
2792.42
2796.18
2798.47
2797.99
2780.21
2738.14
2695.74
2668.91
2658
2656.04
2658.98
2664.96
2668.09
2667.51
2663.94
2658.14
2652.27
2647.15
2643
2640.02
2638.08
2636.42
2633.97
2630.19
2625.76
2621.83
2618.64
2615.87
2613.29
2610.98
2609.18
2608.04
2607.49
2607.25
2607.19
2607.51
2608.28
2609.51
2611.19
2613.27
2615.68
2618.39
2621.35
2624.52
2627.89
2631.46
2635.24
2639.23
2643.42
2647.78
2652.34
2657.11
2662.05
2667.1
2672.23
2677.45
2682.78
2688.2
2693.66
2699.11
2704.57
2710.03
2715.49
2720.94
2726.38
2731.81
2737.13
2742.52
2747.68
2752.97
2757.96
2762.99
2767.81
2772.64
2777.27
2781.86
2786.38
2790.76
2795.05
2799.19
2803.18
2807.01
2810.66
2814.2
2817.51
2820.73
2823.73
2826.59
2829.27
2831.76
2834.09
2836.23
2838.21
2840.01
2841.71
2843.24
2844.59
2845.86
2847
2847.96
2848.86
2849.62
2850.33
2850.95
2851.51
2852.02
2852.5
2853.03
2853.77
3434.84
2987.55
2993.27
2986.93
2963.33
2933.93
2897.57
2859.49
2826.42
2803.93
2793.22
2790.98
2792.38
2796.21
2798.55
2798.05
2781.15
2739.56
2696.78
2669.29
2657.96
2655.46
2658.25
2664.22
2667.54
2667.11
2663.71
2657.89
2651.91
2646.67
2642.41
2639.31
2637.26
2635.53
2633.05
2629.23
2624.68
2620.59
2617.24
2614.32
2611.59
2609.11
2607.13
2605.83
2605.12
2604.71
2604.49
2604.61
2605.19
2606.25
2607.75
2609.64
2611.89
2614.44
2617.25
2620.28
2623.5
2626.9
2630.53
2634.37
2638.4
2642.61
2647.02
2651.62
2656.36
2661.19
2666.12
2671.18
2676.37
2681.62
2686.86
2692.06
2697.24
2702.4
2707.55
2712.68
2717.8
2722.92
2727.97
2733.1
2737.97
2743.06
2747.67
2752.45
2756.87
2761.38
2765.61
2769.8
2773.85
2777.71
2781.44
2785.01
2788.42
2791.7
2794.82
2797.83
2800.67
2803.42
2805.98
2808.45
2810.76
2812.95
2815.01
2816.93
2818.73
2820.39
2822.02
2823.48
2824.85
2826.14
2827.36
2828.44
2829.43
2830.37
2831.23
2832.04
2832.78
2833.46
2834.09
2834.75
2835.55
3434.38
2987.43
2993.07
2986.81
2963.17
2933.66
2897.24
2859.14
2826.13
2803.76
2793.16
2790.95
2792.34
2796.23
2798.63
2798.1
2782.02
2740.94
2697.82
2669.76
2657.91
2654.91
2657.59
2663.49
2666.99
2666.74
2663.48
2657.64
2651.56
2646.22
2641.84
2638.62
2636.48
2634.68
2632.17
2628.29
2623.64
2619.4
2615.89
2612.82
2609.94
2607.3
2605.15
2603.67
2602.78
2602.22
2601.85
2601.79
2602.18
2603.07
2604.38
2606.08
2608.14
2610.51
2613.16
2616.03
2619.09
2622.35
2625.83
2629.53
2633.42
2637.49
2641.76
2646.21
2650.76
2655.4
2660.16
2665.08
2670.12
2675.17
2680.19
2685.16
2690.1
2695.03
2699.94
2704.83
2709.7
2714.53
2719.33
2724.12
2728.68
2733.41
2737.61
2742.07
2746.1
2750.29
2754.17
2758.01
2761.71
2765.25
2768.67
2771.9
2774.97
2777.88
2780.63
2783.25
2785.69
2788.03
2790.18
2792.24
2794.14
2795.94
2797.61
2799.17
2800.61
2801.95
2803.26
2804.42
2805.54
2806.63
2807.62
2808.5
2809.39
2810.2
2811
2811.74
2812.45
2813.12
2813.74
2814.35
2815.16
3433.46
2987.36
2992.89
2986.69
2963
2933.39
2896.91
2858.8
2825.85
2803.59
2793.1
2790.92
2792.3
2796.26
2798.72
2798.16
2782.85
2742.29
2698.87
2670.25
2657.86
2654.39
2656.97
2662.75
2666.44
2666.38
2663.24
2657.4
2651.23
2645.78
2641.29
2637.96
2635.71
2633.85
2631.3
2627.38
2622.62
2618.23
2614.57
2611.35
2608.32
2605.53
2603.21
2601.55
2600.49
2599.76
2599.23
2599.01
2599.24
2599.97
2601.12
2602.63
2604.48
2606.65
2609.12
2611.82
2614.72
2617.83
2621.17
2624.73
2628.48
2632.42
2636.55
2640.81
2645.16
2649.62
2654.23
2658.99
2663.84
2668.66
2673.42
2678.14
2682.85
2687.58
2692.3
2696.99
2701.66
2706.29
2710.89
2715.42
2719.8
2724.25
2728.2
2732.38
2736.12
2740.03
2743.61
2747.1
2750.44
2753.6
2756.64
2759.49
2762.2
2764.76
2767.19
2769.48
2771.62
2773.66
2775.52
2777.31
2778.93
2780.46
2781.87
2783.19
2784.39
2785.51
2786.58
2787.51
2788.47
2789.32
2790.08
2790.81
2791.49
2792.15
2792.76
2793.34
2793.9
2794.44
2794.88
2795.28
2795.13
3432.18
2987.49
2992.71
2986.56
2962.84
2933.12
2896.58
2858.45
2825.57
2803.42
2793.04
2790.89
2792.26
2796.28
2798.8
2798.22
2783.65
2743.65
2699.94
2670.76
2657.78
2653.9
2656.38
2662
2665.87
2666.03
2662.99
2657.16
2650.91
2645.35
2640.74
2637.29
2634.94
2633.01
2630.43
2626.46
2621.6
2617.06
2613.25
2609.88
2606.7
2603.75
2601.26
2599.42
2598.17
2597.25
2596.54
2596.17
2596.25
2596.81
2597.81
2599.13
2600.78
2602.74
2605.01
2607.52
2610.24
2613.17
2616.35
2619.76
2623.38
2627.19
2631.16
2635.25
2639.43
2643.73
2648.2
2652.8
2657.43
2662
2666.52
2671.04
2675.59
2680.17
2684.73
2689.26
2693.73
2698.15
2702.52
2706.76
2710.88
2714.99
2718.72
2722.6
2726.11
2729.77
2733.15
2736.43
2739.59
2742.59
2745.48
2748.17
2750.72
2753.12
2755.37
2757.47
2759.42
2761.27
2762.95
2764.56
2766.01
2767.39
2768.65
2769.83
2770.9
2771.91
2772.84
2773.68
2774.54
2775.29
2775.96
2776.63
2777.24
2777.83
2778.39
2778.92
2779.44
2779.94
2780.43
2781.07
2781.7
3431.7
2987.87
2992.54
2986.42
2962.67
2932.85
2896.24
2858.1
2825.28
2803.25
2792.98
2790.87
2792.22
2796.3
2798.88
2798.29
2784.44
2745.02
2701.05
2671.29
2657.68
2653.43
2655.81
2661.22
2665.27
2665.66
2662.72
2656.92
2650.6
2644.93
2640.19
2636.63
2634.17
2632.17
2629.55
2625.54
2620.57
2615.89
2611.92
2608.4
2605.07
2601.96
2599.31
2597.28
2595.83
2594.71
2593.8
2593.27
2593.2
2593.59
2594.44
2595.6
2597.06
2598.82
2600.88
2603.19
2605.72
2608.46
2611.46
2614.71
2618.17
2621.83
2625.63
2629.52
2633.51
2637.63
2641.93
2646.31
2650.67
2654.97
2659.25
2663.57
2667.95
2672.38
2676.77
2681.11
2685.4
2689.62
2693.78
2697.77
2701.69
2705.5
2709.07
2712.67
2715.95
2719.32
2722.46
2725.44
2728.35
2731.1
2733.76
2736.24
2738.6
2740.83
2742.93
2744.9
2746.74
2748.47
2750.06
2751.58
2752.96
2754.28
2755.47
2756.6
2757.62
2758.6
2759.45
2760.26
2761.05
2761.73
2762.35
2762.94
2763.49
2763.98
2764.44
2764.86
2765.25
2765.61
2765.98
2766.55
2767.83
3431.29
2988.48
2992.39
2986.26
2962.49
2932.57
2895.89
2857.74
2824.99
2803.08
2792.92
2790.84
2792.19
2796.32
2798.95
2798.36
2785.2
2746.4
2702.21
2671.83
2657.53
2652.99
2655.25
2660.41
2664.62
2665.28
2662.44
2656.69
2650.3
2644.5
2639.65
2635.96
2633.4
2631.31
2628.66
2624.6
2619.53
2614.7
2610.58
2606.91
2603.42
2600.13
2597.3
2595.09
2593.44
2592.11
2591
2590.28
2590.03
2590.26
2590.93
2591.93
2593.2
2594.77
2596.63
2598.74
2601.06
2603.61
2606.43
2609.49
2612.78
2616.26
2619.88
2623.58
2627.39
2631.35
2635.45
2639.59
2643.68
2647.72
2651.79
2655.95
2660.18
2664.44
2668.63
2672.74
2676.78
2680.74
2684.6
2688.29
2691.93
2695.38
2698.79
2702.06
2705.16
2708.24
2711.18
2713.95
2716.66
2719.22
2721.7
2723.99
2726.16
2728.18
2730.08
2731.84
2733.47
2735
2736.38
2737.7
2738.88
2740
2740.99
2741.92
2742.74
2743.52
2744.16
2744.79
2745.33
2745.77
2746.23
2746.57
2746.9
2747.16
2747.4
2747.58
2747.73
2747.84
2747.94
2748.03
2747.97
3430.53
2989.3
2992.24
2986.09
2962.31
2932.28
2895.54
2857.38
2824.7
2802.91
2792.86
2790.81
2792.15
2796.32
2799.02
2798.45
2785.96
2747.8
2703.41
2672.36
2657.33
2652.57
2654.69
2659.56
2663.93
2664.86
2662.14
2656.45
2650
2644.08
2639.1
2635.29
2632.61
2630.45
2627.75
2623.65
2618.48
2613.51
2609.23
2605.41
2601.75
2598.29
2595.27
2592.87
2591.02
2589.48
2588.17
2587.23
2586.83
2586.88
2587.33
2588.16
2589.27
2590.65
2592.31
2594.22
2596.35
2598.72
2601.34
2604.21
2607.31
2610.59
2614
2617.51
2621.13
2624.88
2628.73
2632.57
2636.36
2640.16
2644.03
2648.02
2652.07
2656.1
2660.03
2663.89
2667.67
2671.37
2674.96
2678.38
2681.79
2684.93
2688.2
2691.13
2694.06
2696.81
2699.51
2701.98
2704.43
2706.72
2708.94
2710.98
2712.92
2714.72
2716.42
2717.99
2719.45
2720.81
2722.05
2723.22
2724.25
2725.23
2726.09
2726.88
2727.58
2728.22
2728.72
2729.2
2729.62
2729.97
2730.28
2730.52
2730.73
2730.89
2731.01
2731.09
2731.15
2731.18
2731.18
2731.12
2730.99
3429.57
2990.54
2992.09
2985.91
2962.12
2931.99
2895.18
2857.01
2824.4
2802.74
2792.8
2790.79
2792.11
2796.32
2799.08
2798.54
2786.69
2749.2
2704.65
2672.89
2657.11
2652.2
2654.12
2658.67
2663.2
2664.43
2661.84
2656.23
2649.71
2643.66
2638.55
2634.62
2631.83
2629.58
2626.83
2622.69
2617.42
2612.3
2607.87
2603.89
2600.06
2596.41
2593.21
2590.6
2588.54
2586.79
2585.27
2584.12
2583.54
2583.41
2583.64
2584.27
2585.19
2586.37
2587.84
2589.55
2591.5
2593.68
2596.11
2598.79
2601.69
2604.77
2607.98
2611.3
2614.75
2618.3
2621.89
2625.44
2628.97
2632.56
2636.26
2640.07
2643.9
2647.65
2651.28
2654.82
2658.29
2661.69
2664.96
2668.11
2671.23
2674.08
2677.18
2679.78
2682.62
2685.08
2687.63
2689.9
2692.15
2694.24
2696.25
2698.1
2699.85
2701.46
2702.98
2704.38
2705.69
2706.9
2708
2709.03
2709.93
2710.8
2711.54
2712.25
2712.86
2713.42
2713.81
2714.22
2714.57
2714.86
2715.11
2715.3
2715.46
2715.58
2715.68
2715.73
2715.77
2715.78
2715.77
2715.72
2715.58
3428.95
2992.05
2991.92
2985.74
2961.93
2931.69
2894.81
2856.64
2824.1
2802.57
2792.74
2790.76
2792.07
2796.31
2799.12
2798.63
2787.41
2750.6
2705.91
2673.44
2656.94
2651.87
2653.51
2657.75
2662.46
2663.97
2661.52
2656
2649.43
2643.25
2638.01
2633.95
2631.04
2628.7
2625.91
2621.73
2616.37
2611.09
2606.5
2602.37
2598.37
2594.54
2591.14
2588.33
2586.05
2584.08
2582.35
2581
2580.21
2579.91
2579.96
2580.34
2581.06
2582.04
2583.29
2584.81
2586.57
2588.58
2590.83
2593.31
2596
2598.86
2601.87
2604.99
2608.24
2611.55
2614.86
2618.12
2621.41
2624.8
2628.33
2631.91
2635.45
2638.89
2642.2
2645.45
2648.64
2651.77
2654.78
2657.71
2660.58
2663.23
2666.12
2668.45
2671.14
2673.31
2675.69
2677.73
2679.75
2681.63
2683.44
2685.1
2686.7
2688.17
2689.56
2690.84
2692.06
2693.17
2694.19
2695.14
2695.98
2696.78
2697.48
2698.15
2698.74
2699.28
2699.65
2700.05
2700.41
2700.7
2700.97
2701.18
2701.37
2701.52
2701.65
2701.75
2701.83
2701.88
2701.92
2701.94
2701.9
3428.33
2993.37
2991.74
2985.57
2961.74
2931.39
2894.44
2856.26
2823.8
2802.39
2792.68
2790.74
2792.03
2796.28
2799.15
2798.73
2788.1
2752
2707.21
2674.04
2656.85
2651.57
2652.88
2656.8
2661.72
2663.5
2661.19
2655.79
2649.15
2642.85
2637.48
2633.28
2630.26
2627.83
2624.99
2620.77
2615.31
2609.88
2605.13
2600.83
2596.66
2592.64
2589.06
2586.04
2583.54
2581.33
2579.38
2577.82
2576.82
2576.34
2576.2
2576.34
2576.84
2577.61
2578.64
2579.95
2581.52
2583.34
2585.41
2587.7
2590.18
2592.83
2595.63
2598.57
2601.63
2604.72
2607.77
2610.8
2613.89
2617.11
2620.42
2623.74
2626.96
2630.05
2633.05
2636
2638.9
2641.76
2644.52
2647.22
2649.82
2652.3
2654.96
2657.11
2659.6
2661.55
2663.79
2665.68
2667.52
2669.26
2670.9
2672.44
2673.91
2675.25
2676.53
2677.71
2678.83
2679.84
2680.79
2681.65
2682.43
2683.17
2683.81
2684.46
2685
2685.54
2685.92
2686.33
2686.71
2687.02
2687.32
2687.57
2687.81
2688
2688.19
2688.34
2688.48
2688.6
2688.7
2688.79
2688.86
3427.56
2994.04
2991.56
2985.41
2961.55
2931.08
2894.07
2855.88
2823.49
2802.22
2792.63
2790.71
2791.99
2796.24
2799.16
2798.83
2788.78
2753.38
2708.53
2674.69
2656.85
2651.28
2652.19
2655.87
2660.99
2663.01
2660.85
2655.58
2648.89
2642.45
2636.95
2632.63
2629.48
2626.97
2624.08
2619.81
2614.25
2608.68
2603.77
2599.3
2594.95
2590.76
2586.99
2583.76
2581.03
2578.59
2576.42
2574.65
2573.42
2572.73
2572.41
2572.35
2572.59
2573.15
2573.96
2575.05
2576.42
2578.07
2579.95
2582.04
2584.31
2586.73
2589.31
2592.04
2594.87
2597.72
2600.52
2603.34
2606.25
2609.28
2612.34
2615.34
2618.21
2620.99
2623.71
2626.41
2629.09
2631.74
2634.29
2636.8
2639.18
2641.49
2643.9
2645.9
2648.14
2649.89
2651.91
2653.63
2655.29
2656.89
2658.38
2659.8
2661.16
2662.4
2663.58
2664.67
2665.71
2666.66
2667.56
2668.38
2669.14
2669.85
2670.49
2671.13
2671.69
2672.26
2672.68
2673.15
2673.57
2673.93
2674.28
2674.59
2674.9
2675.17
2675.43
2675.65
2675.87
2676.07
2676.25
2676.42
2676.62
3426.84
2994.3
2991.36
2985.25
2961.35
2930.77
2893.69
2855.5
2823.19
2802.05
2792.57
2790.69
2791.94
2796.19
2799.17
2798.93
2789.42
2754.74
2709.88
2675.43
2656.91
2651
2651.47
2654.97
2660.28
2662.49
2660.51
2655.37
2648.63
2642.06
2636.43
2631.98
2628.71
2626.1
2623.16
2618.85
2613.2
2607.49
2602.4
2597.76
2593.24
2588.88
2584.92
2581.48
2578.51
2575.83
2573.43
2571.44
2569.99
2569.06
2568.54
2568.3
2568.3
2568.6
2569.19
2570.06
2571.23
2572.69
2574.39
2576.28
2578.33
2580.54
2582.9
2585.43
2588.04
2590.66
2593.25
2595.91
2598.65
2601.46
2604.23
2606.89
2609.42
2611.9
2614.36
2616.84
2619.3
2621.73
2624.07
2626.35
2628.5
2630.62
2632.78
2634.66
2636.66
2638.26
2640.06
2641.64
2643.16
2644.64
2646.02
2647.33
2648.59
2649.73
2650.82
2651.82
2652.77
2653.65
2654.49
2655.27
2656.01
2656.69
2657.33
2657.94
2658.49
2659.07
2659.52
2660.03
2660.47
2660.86
2661.25
2661.6
2661.95
2662.26
2662.57
2662.85
2663.12
2663.38
2663.62
2663.85
2664.14
3426.21
2994.23
2991.17
2985.08
2961.15
2930.46
2893.31
2855.11
2822.89
2801.88
2792.51
2790.67
2791.9
2796.13
2799.18
2799.04
2790.03
2756.07
2711.23
2676.24
2657.1
2650.69
2650.72
2654.13
2659.59
2661.95
2660.15
2655.17
2648.38
2641.68
2635.93
2631.34
2627.95
2625.25
2622.25
2617.89
2612.16
2606.3
2601.05
2596.24
2591.56
2587.02
2582.87
2579.22
2576.02
2573.09
2570.47
2568.26
2566.58
2565.41
2564.66
2564.21
2563.99
2564.05
2564.4
2565.06
2566.02
2567.29
2568.79
2570.47
2572.31
2574.29
2576.43
2578.72
2581.08
2583.46
2585.85
2588.34
2590.89
2593.45
2595.91
2598.23
2600.46
2602.69
2604.95
2607.23
2609.5
2611.74
2613.87
2615.92
2617.84
2619.73
2621.65
2623.36
2625.1
2626.57
2628.12
2629.55
2630.9
2632.25
2633.49
2634.69
2635.84
2636.89
2637.89
2638.82
2639.71
2640.55
2641.36
2642.11
2642.83
2643.51
2644.15
2644.75
2645.3
2645.88
2646.35
2646.89
2647.36
2647.78
2648.2
2648.59
2648.98
2649.33
2649.68
2650.01
2650.32
2650.63
2650.92
2651.21
2651.57
3425.52
2994.11
2990.97
2984.92
2960.95
2930.14
2892.92
2854.72
2822.58
2801.71
2792.46
2790.65
2791.85
2796.07
2799.2
2799.15
2790.6
2757.37
2712.61
2677.12
2657.37
2650.35
2649.97
2653.33
2658.89
2661.38
2659.78
2654.98
2648.13
2641.31
2635.43
2630.71
2627.19
2624.4
2621.35
2616.94
2611.12
2605.12
2599.7
2594.73
2589.89
2585.17
2580.82
2576.95
2573.51
2570.35
2567.5
2565.07
2563.15
2561.73
2560.73
2560.06
2559.63
2559.45
2559.54
2559.96
2560.72
2561.79
2563.09
2564.57
2566.19
2567.97
2569.9
2571.97
2574.09
2576.25
2578.46
2580.77
2583.11
2585.39
2587.53
2589.55
2591.53
2593.56
2595.62
2597.69
2599.73
2601.71
2603.58
2605.37
2607.04
2608.68
2610.35
2611.88
2613.36
2614.74
2616.05
2617.39
2618.57
2619.77
2620.88
2621.96
2622.99
2623.94
2624.86
2625.73
2626.57
2627.36
2628.14
2628.88
2629.58
2630.25
2630.88
2631.48
2632.02
2632.56
2633.04
2633.59
2634.05
2634.47
2634.89
2635.28
2635.67
2636.04
2636.39
2636.73
2637.06
2637.38
2637.69
2638
2638.39
3424.68
2993.96
2990.77
2984.75
2960.74
2929.82
2892.53
2854.33
2822.27
2801.54
2792.4
2790.63
2791.81
2796.02
2799.23
2799.27
2791.15
2758.65
2713.99
2678.02
2657.65
2649.99
2649.24
2652.57
2658.17
2660.78
2659.4
2654.78
2647.89
2640.96
2634.95
2630.09
2626.44
2623.55
2620.44
2616
2610.09
2603.95
2598.37
2593.24
2588.24
2583.34
2578.79
2574.7
2571.03
2567.63
2564.56
2561.9
2559.75
2558.07
2556.82
2555.91
2555.26
2554.84
2554.69
2554.86
2555.4
2556.26
2557.36
2558.62
2560.02
2561.58
2563.29
2565.12
2567
2568.94
2570.95
2573.06
2575.14
2577.12
2578.97
2580.75
2582.55
2584.4
2586.28
2588.14
2589.92
2591.62
2593.21
2594.73
2596.15
2597.55
2598.96
2600.28
2601.48
2602.79
2603.83
2605.09
2606.08
2607.12
2608.09
2609.03
2609.94
2610.81
2611.65
2612.45
2613.24
2614
2614.76
2615.47
2616.16
2616.81
2617.44
2618.03
2618.59
2619.11
2619.6
2620.15
2620.61
2621.03
2621.46
2621.86
2622.25
2622.63
2622.99
2623.35
2623.69
2624.02
2624.35
2624.68
2625.1
3423.87
2993.78
2990.57
2984.57
2960.53
2929.49
2892.14
2853.94
2821.97
2801.37
2792.35
2790.6
2791.76
2795.97
2799.28
2799.4
2791.66
2759.9
2715.4
2678.95
2657.89
2649.62
2648.54
2651.83
2657.42
2660.14
2659.01
2654.59
2647.66
2640.61
2634.47
2629.48
2625.7
2622.71
2619.54
2615.06
2609.07
2602.78
2597.05
2591.76
2586.59
2581.51
2576.75
2572.44
2568.55
2564.91
2561.6
2558.72
2556.33
2554.4
2552.89
2551.73
2550.84
2550.19
2549.8
2549.72
2550.01
2550.66
2551.54
2552.58
2553.76
2555.12
2556.62
2558.23
2559.9
2561.63
2563.45
2565.31
2567.12
2568.8
2570.4
2571.99
2573.63
2575.31
2576.97
2578.55
2580.03
2581.41
2582.69
2583.93
2585.12
2586.29
2587.47
2588.6
2589.56
2590.78
2591.59
2592.77
2593.58
2594.47
2595.32
2596.13
2596.93
2597.7
2598.46
2599.19
2599.91
2600.6
2601.29
2601.94
2602.58
2603.18
2603.76
2604.32
2604.84
2605.33
2605.8
2606.33
2606.76
2607.18
2607.59
2607.99
2608.37
2608.75
2609.1
2609.45
2609.79
2610.13
2610.46
2610.78
2611.2
3423.15
2993.59
2990.36
2984.4
2960.31
2929.16
2891.74
2853.54
2821.66
2801.2
2792.3
2790.58
2791.72
2795.92
2799.34
2799.54
2792.16
2761.13
2716.81
2679.89
2658.09
2649.24
2647.87
2651.09
2656.63
2659.46
2658.6
2654.39
2647.43
2640.28
2634.01
2628.88
2624.97
2621.87
2618.64
2614.12
2608.06
2601.64
2595.74
2590.3
2584.96
2579.69
2574.73
2570.21
2566.09
2562.21
2558.67
2555.55
2552.93
2550.75
2548.97
2547.56
2546.43
2545.54
2544.9
2544.61
2544.65
2545.03
2545.68
2546.5
2547.45
2548.58
2549.85
2551.24
2552.68
2554.21
2555.81
2557.41
2558.92
2560.33
2561.72
2563.16
2564.65
2566.12
2567.52
2568.81
2569.99
2571.08
2572.09
2573.08
2574.04
2575
2575.96
2576.9
2577.67
2578.74
2579.36
2580.39
2581.02
2581.76
2582.48
2583.17
2583.86
2584.53
2585.2
2585.84
2586.48
2587.09
2587.68
2588.25
2588.82
2589.36
2589.88
2590.38
2590.87
2591.33
2591.77
2592.25
2592.67
2593.07
2593.47
2593.87
2594.25
2594.62
2594.97
2595.32
2595.65
2595.99
2596.32
2596.64
2597.03
3422.34
2993.36
2990.16
2984.22
2960.1
2928.83
2891.34
2853.14
2821.35
2801.03
2792.24
2790.56
2791.68
2795.88
2799.4
2799.68
2792.64
2762.35
2718.24
2680.85
2658.29
2648.86
2647.23
2650.35
2655.79
2658.76
2658.2
2654.18
2647.21
2639.96
2633.56
2628.29
2624.25
2621.04
2617.74
2613.18
2607.05
2600.5
2594.45
2588.84
2583.32
2577.86
2572.7
2567.97
2563.62
2559.52
2555.74
2552.39
2549.52
2547.09
2545.03
2543.35
2541.98
2540.85
2539.96
2539.44
2539.26
2539.39
2539.77
2540.36
2541.09
2541.99
2543.05
2544.22
2545.47
2546.79
2548.16
2549.48
2550.69
2551.85
2553.07
2554.34
2555.64
2556.85
2557.95
2558.91
2559.78
2560.61
2561.39
2562.17
2562.93
2563.67
2564.44
2565.2
2565.85
2566.71
2567.18
2568.01
2568.47
2569.06
2569.66
2570.21
2570.78
2571.35
2571.9
2572.44
2572.97
2573.47
2573.98
2574.45
2574.91
2575.36
2575.8
2576.23
2576.65
2577.05
2577.46
2577.86
2578.23
2578.61
2578.99
2579.37
2579.73
2580.09
2580.42
2580.76
2581.08
2581.41
2581.72
2582.03
2582.4
3421.66
2993.09
2989.95
2984.04
2959.87
2928.49
2890.93
2852.74
2821.04
2800.87
2792.19
2790.55
2791.63
2795.85
2799.47
2799.82
2793.12
2763.55
2719.68
2681.82
2658.5
2648.52
2646.64
2649.6
2654.89
2658.04
2657.79
2653.96
2646.99
2639.65
2633.12
2627.7
2623.53
2620.22
2616.86
2612.25
2606.05
2599.37
2593.17
2587.39
2581.69
2576.04
2570.69
2565.74
2561.18
2556.84
2552.84
2549.25
2546.14
2543.44
2541.11
2539.15
2537.52
2536.15
2535.03
2534.25
2533.86
2533.76
2533.87
2534.19
2534.69
2535.36
2536.18
2537.11
2538.15
2539.26
2540.39
2541.42
2542.37
2543.31
2544.34
2545.42
2546.47
2547.39
2548.17
2548.84
2549.44
2550.04
2550.65
2551.24
2551.82
2552.35
2552.9
2553.47
2553.99
2554.61
2554.96
2555.57
2555.84
2556.28
2556.73
2557.12
2557.54
2557.97
2558.39
2558.8
2559.21
2559.6
2559.98
2560.35
2560.73
2561.08
2561.44
2561.8
2562.16
2562.51
2562.87
2563.22
2563.54
2563.89
2564.24
2564.59
2564.92
2565.26
2565.57
2565.89
2566.19
2566.5
2566.8
2567.09
2567.44
3420.85
2992.79
2989.74
2983.85
2959.65
2928.14
2890.52
2852.34
2820.73
2800.7
2792.14
2790.53
2791.59
2795.82
2799.54
2799.96
2793.58
2764.74
2721.14
2682.83
2658.76
2648.22
2646.08
2648.84
2653.95
2657.33
2657.39
2653.71
2646.78
2639.36
2632.69
2627.13
2622.83
2619.41
2615.98
2611.33
2605.06
2598.25
2591.89
2585.95
2580.07
2574.23
2568.68
2563.52
2558.73
2554.16
2549.93
2546.11
2542.75
2539.78
2537.16
2534.92
2533.03
2531.41
2530.05
2529.03
2528.39
2528.07
2527.95
2528.01
2528.26
2528.7
2529.29
2530
2530.83
2531.73
2532.61
2533.38
2534.08
2534.81
2535.63
2536.45
2537.19
2537.78
2538.27
2538.67
2539.04
2539.44
2539.87
2540.28
2540.68
2541
2541.36
2541.68
2542.02
2542.37
2542.64
2543.08
2543.17
2543.44
2543.7
2543.9
2544.14
2544.4
2544.67
2544.93
2545.2
2545.45
2545.71
2545.96
2546.23
2546.49
2546.76
2547.03
2547.32
2547.61
2547.92
2548.18
2548.44
2548.74
2549.03
2549.32
2549.6
2549.87
2550.14
2550.4
2550.66
2550.92
2551.19
2551.46
2551.77
3419.96
2992.48
2989.53
2983.66
2959.42
2927.79
2890.1
2851.93
2820.42
2800.54
2792.09
2790.51
2791.55
2795.78
2799.61
2800.08
2794.02
2765.92
2722.6
2683.87
2659.07
2648
2645.55
2648.09
2652.99
2656.61
2656.98
2653.44
2646.57
2639.08
2632.28
2626.57
2622.14
2618.61
2615.11
2610.41
2604.07
2597.14
2590.63
2584.52
2578.46
2572.44
2566.69
2561.32
2556.29
2551.5
2547.05
2543
2539.39
2536.13
2533.23
2530.7
2528.53
2526.66
2525.07
2523.81
2522.91
2522.34
2522
2521.82
2521.82
2521.99
2522.33
2522.81
2523.42
2524.09
2524.72
2525.24
2525.72
2526.26
2526.85
2527.37
2527.77
2528.04
2528.25
2528.44
2528.65
2528.88
2529.11
2529.32
2529.51
2529.6
2529.76
2529.81
2529.95
2529.98
2530.1
2530.32
2530.24
2530.3
2530.35
2530.37
2530.43
2530.51
2530.61
2530.71
2530.82
2530.93
2531.05
2531.19
2531.35
2531.51
2531.71
2531.91
2532.12
2532.34
2532.57
2532.76
2532.96
2533.19
2533.4
2533.62
2533.83
2534.04
2534.24
2534.44
2534.64
2534.84
2535.05
2535.27
2535.55
3419.24
2992.18
2989.31
2983.47
2959.18
2927.44
2889.68
2851.52
2820.11
2800.37
2792.04
2790.49
2791.52
2795.74
2799.66
2800.2
2794.46
2767.08
2724.07
2684.96
2659.47
2647.82
2645.05
2647.33
2652.02
2655.9
2656.54
2653.16
2646.38
2638.81
2631.87
2626.03
2621.46
2617.81
2614.24
2609.5
2603.08
2596.03
2589.36
2583.09
2576.87
2570.67
2564.71
2559.11
2553.86
2548.83
2544.16
2539.89
2536.02
2532.48
2529.28
2526.46
2524.01
2521.87
2520.03
2518.53
2517.39
2516.57
2515.98
2515.58
2515.36
2515.3
2515.39
2515.63
2516.01
2516.44
2516.83
2517.11
2517.39
2517.72
2518.05
2518.26
2518.31
2518.28
2518.25
2518.26
2518.32
2518.37
2518.38
2518.35
2518.28
2518.14
2518.07
2517.87
2517.79
2517.48
2517.37
2517.32
2517.06
2516.93
2516.78
2516.6
2516.47
2516.35
2516.27
2516.19
2516.13
2516.08
2516.05
2516.05
2516.07
2516.11
2516.19
2516.28
2516.4
2516.53
2516.68
2516.75
2516.86
2517.01
2517.13
2517.27
2517.39
2517.52
2517.65
2517.78
2517.92
2518.06
2518.21
2518.34
2518.57
3418.43
2991.89
2989.1
2983.27
2958.94
2927.08
2889.25
2851.1
2819.79
2800.21
2791.99
2790.47
2791.48
2795.7
2799.7
2800.31
2794.87
2768.23
2725.54
2686.09
2659.94
2647.7
2644.55
2646.57
2651.06
2655.17
2656.08
2652.86
2646.19
2638.56
2631.48
2625.49
2620.79
2617.03
2613.37
2608.58
2602.1
2594.93
2588.11
2581.68
2575.3
2568.92
2562.76
2556.93
2551.43
2546.17
2541.29
2536.79
2532.67
2528.84
2525.35
2522.23
2519.49
2517.09
2514.99
2513.25
2511.85
2510.77
2509.94
2509.3
2508.84
2508.54
2508.4
2508.39
2508.52
2508.71
2508.86
2508.91
2509
2509.1
2509.15
2509.05
2508.82
2508.56
2508.33
2508.17
2508.06
2507.9
2507.67
2507.36
2507.02
2506.62
2506.28
2505.82
2505.49
2504.88
2504.5
2504.15
2503.69
2503.32
2502.96
2502.57
2502.23
2501.92
2501.63
2501.36
2501.12
2500.9
2500.71
2500.55
2500.42
2500.31
2500.25
2500.2
2500.18
2500.19
2500.24
2500.17
2500.18
2500.24
2500.27
2500.33
2500.36
2500.43
2500.48
2500.55
2500.64
2500.74
2500.88
2501.03
2501.03
3417.67
2991.59
2988.88
2983.07
2958.69
2926.71
2888.82
2850.68
2819.48
2800.04
2791.95
2790.46
2791.44
2795.65
2799.72
2800.4
2795.27
2769.35
2727
2687.27
2660.48
2647.59
2644.06
2645.8
2650.1
2654.44
2655.58
2652.54
2646
2638.32
2631.1
2624.97
2620.13
2616.25
2612.51
2607.67
2601.12
2593.82
2586.86
2580.29
2573.76
2567.19
2560.82
2554.74
2549
2543.51
2538.4
2533.68
2529.3
2525.19
2521.39
2517.98
2514.95
2512.27
2509.91
2507.91
2506.26
2504.93
2503.86
2503
2502.32
2501.77
2501.39
2501.14
2501.04
2500.97
2500.88
2500.74
2500.61
2500.46
2500.21
2499.82
2499.36
2498.93
2498.54
2498.2
2497.85
2497.43
2496.91
2496.32
2495.69
2495.04
2494.4
2493.71
2493.11
2492.25
2491.59
2490.94
2490.27
2489.62
2489.02
2488.4
2487.85
2487.31
2486.81
2486.33
2485.89
2485.48
2485.11
2484.77
2484.46
2484.18
2483.94
2483.72
2483.53
2483.38
2483.29
2483.06
2482.94
2482.88
2482.79
2482.73
2482.67
2482.64
2482.6
2482.59
2482.59
2482.62
2482.73
2482.91
2482.61
3416.82
2991.28
2988.66
2982.86
2958.44
2926.33
2888.37
2850.25
2819.16
2799.88
2791.9
2790.44
2791.4
2795.6
2799.74
2800.48
2795.65
2770.45
2728.46
2688.47
2661.07
2647.5
2643.56
2645.03
2649.14
2653.69
2655.04
2652.21
2645.83
2638.09
2630.72
2624.45
2619.48
2615.47
2611.65
2606.76
2600.15
2592.73
2585.62
2578.91
2572.23
2565.49
2558.89
2552.57
2546.58
2540.85
2535.52
2530.57
2525.93
2521.53
2517.44
2513.73
2510.41
2507.45
2504.83
2502.56
2500.65
2499.06
2497.75
2496.66
2495.75
2494.98
2494.34
2493.84
2493.48
2493.15
2492.83
2492.5
2492.17
2491.76
2491.2
2490.55
2489.92
2489.35
2488.83
2488.27
2487.65
2486.91
2486.09
2485.23
2484.35
2483.46
2482.5
2481.56
2480.68
2479.61
2478.66
2477.72
2476.82
2475.87
2475.02
2474.14
2473.34
2472.57
2471.83
2471.14
2470.47
2469.85
2469.27
2468.73
2468.21
2467.72
2467.28
2466.86
2466.48
2466.15
2465.89
2465.49
2465.22
2465.03
2464.8
2464.63
2464.44
2464.31
2464.17
2464.06
2463.96
2463.91
2463.94
2464.13
2463.53
3415.92
2990.96
2988.44
2982.65
2958.19
2925.95
2887.93
2849.82
2818.84
2799.71
2791.85
2790.42
2791.36
2795.55
2799.75
2800.56
2796.02
2771.53
2729.91
2689.7
2661.69
2647.4
2643.05
2644.25
2648.19
2652.93
2654.47
2651.86
2645.66
2637.87
2630.36
2623.95
2618.84
2614.71
2610.8
2605.86
2599.17
2591.64
2584.39
2577.54
2570.71
2563.79
2556.97
2550.41
2544.17
2538.19
2532.62
2527.43
2522.53
2517.85
2513.45
2509.44
2505.83
2502.6
2499.71
2497.17
2494.99
2493.14
2491.58
2490.27
2489.16
2488.17
2487.3
2486.55
2485.92
2485.34
2484.8
2484.28
2483.73
2483.04
2482.21
2481.34
2480.55
2479.84
2479.14
2478.36
2477.45
2476.39
2475.27
2474.14
2473.04
2471.93
2470.7
2469.53
2468.31
2467.05
2465.85
2464.62
2463.49
2462.24
2461.14
2459.99
2458.92
2457.89
2456.9
2455.96
2455.06
2454.2
2453.37
2452.6
2451.85
2451.13
2450.46
2449.81
2449.21
2448.67
2448.22
2447.6
2447.14
2446.75
2446.35
2446
2445.66
2445.37
2445.08
2444.85
2444.62
2444.46
2444.39
2444.56
2443.66
3415.18
2990.63
2988.22
2982.44
2957.92
2925.56
2887.47
2849.39
2818.52
2799.55
2791.8
2790.41
2791.33
2795.49
2799.75
2800.63
2796.37
2772.58
2731.36
2690.95
2662.33
2647.31
2642.53
2643.46
2647.23
2652.13
2653.86
2651.49
2645.5
2637.66
2630.01
2623.46
2618.21
2613.95
2609.96
2604.96
2598.21
2590.55
2583.16
2576.17
2569.21
2562.11
2555.08
2548.27
2541.78
2535.55
2529.74
2524.3
2519.13
2514.15
2509.45
2505.13
2501.23
2497.73
2494.57
2491.77
2489.3
2487.17
2485.37
2483.84
2482.51
2481.31
2480.21
2479.22
2478.32
2477.49
2476.73
2476
2475.23
2474.3
2473.25
2472.22
2471.27
2470.35
2469.42
2468.39
2467.22
2465.9
2464.53
2463.16
2461.83
2460.5
2459.04
2457.63
2456.08
2454.6
2453.14
2451.63
2450.26
2448.74
2447.4
2445.95
2444.59
2443.26
2441.98
2440.76
2439.6
2438.49
2437.41
2436.38