/*--------------------------------*- C++ -*----------------------------------*\
| =========                 |                                                 |
| \\      /  F ield         | OpenFOAM: The Open Source CFD Toolbox           |
|  \\    /   O peration     | Version:  2412                                  |
|   \\  /    A nd           | Website:  www.openfoam.com                      |
|    \\/     M anipulation  |                                                 |
\*---------------------------------------------------------------------------*/
FoamFile
{
    version     2.0;
    format      ascii;
    arch        "LSB;label=32;scalar=64";
    class       volScalarField;
    location    "0.019";
    object      rho;
}
// * * * * * * * * * * * * * * * * * * * * * * * * * * * * * * * * * * * * * //

dimensions      [1 -3 0 0 0 0 0];

internalField   nonuniform List<scalar> 
9831
(
0.0373658
0.039882
0.0372952
0.0398554
0.0401645
0.0403802
0.0406037
0.0408235
0.041038
0.041245
0.0414408
0.0416205
0.0417783
0.0419077
0.0420083
0.0420931
0.0421924
0.0424374
0.0427178
0.042876
0.0429267
0.0429461
0.0429692
0.0430265
0.0431222
0.043204
0.0432631
0.0433148
0.0433601
0.0433884
0.0433984
0.0433992
0.0434019
0.0434192
0.0434566
0.0434982
0.0435328
0.043562
0.0435904
0.0436202
0.0436508
0.0436818
0.0437138
0.0437465
0.043778
0.043807
0.0438339
0.0438609
0.043888
0.0439146
0.0439394
0.0439623
0.0372262
0.0398292
0.0401466
0.0403658
0.0405909
0.0408116
0.0410269
0.0412348
0.0414315
0.0416123
0.0417713
0.041902
0.0420044
0.0420918
0.0421955
0.0424448
0.0427231
0.0428775
0.0429271
0.0429472
0.0429719
0.0430309
0.0431256
0.0432053
0.0432635
0.0433149
0.0433596
0.0433869
0.0433964
0.0433971
0.0434004
0.0434187
0.0434567
0.0434981
0.0435323
0.0435613
0.0435897
0.0436196
0.0436503
0.0436812
0.0437132
0.0437457
0.043777
0.043806
0.0438331
0.0438602
0.0438875
0.0439142
0.0439391
0.0439619
0.0439833
0.0440033
0.0371583
0.0398032
0.0401291
0.0403518
0.0405786
0.0408001
0.0410162
0.0412248
0.0414225
0.0416043
0.0417644
0.0418965
0.0420005
0.0420905
0.0421986
0.042452
0.042728
0.0428789
0.0429277
0.0429484
0.0429746
0.0430351
0.0431288
0.0432065
0.0432638
0.043315
0.043359
0.0433855
0.0433943
0.0433951
0.043399
0.0434183
0.0434568
0.0434979
0.0435317
0.0435605
0.0435891
0.0436191
0.0436498
0.0436806
0.0437124
0.0437448
0.0437761
0.0438051
0.0438322
0.0438595
0.043887
0.0439139
0.0439388
0.0439616
0.0439828
0.0440028
0.0440214
0.0440383
0.0370919
0.0397776
0.040112
0.0403382
0.0405666
0.0407889
0.0410057
0.0412151
0.0414136
0.0415965
0.0417576
0.0418909
0.0419967
0.0420893
0.0422018
0.042459
0.0427328
0.0428803
0.0429283
0.0429496
0.0429774
0.0430392
0.0431317
0.0432076
0.0432641
0.0433151
0.0433584
0.043384
0.0433923
0.043393
0.0433975
0.0434179
0.0434569
0.0434977
0.0435311
0.0435598
0.0435884
0.0436185
0.0436492
0.04368
0.0437117
0.0437439
0.0437751
0.0438041
0.0438314
0.0438589
0.0438866
0.0439136
0.0439386
0.0439613
0.0439825
0.0440023
0.0440209
0.0440378
0.0440525
0.0440637
0.0440712
0.0440757
0.0440769
0.0440752
0.0440711
0.0440644
0.0440545
0.0440413
0.0440253
0.0440064
0.0439849
0.043961
0.0439347
0.0439064
0.0438761
0.0438441
0.0438104
0.0437753
0.0437389
0.0437013
0.0436627
0.0436233
0.0435832
0.0435426
0.0435016
0.0434604
0.0434191
0.0433779
0.0433368
0.043296
0.0432556
0.0432156
0.0431762
0.0431374
0.0430992
0.0430618
0.0430252
0.0429894
0.0429544
0.0429203
0.0428872
0.0428549
0.0428236
0.0427932
0.0427637
0.0427352
0.0427076
0.0426809
0.0426552
0.0426305
0.0426066
0.0425837
0.0425616
0.0425402
0.0425197
0.0424997
0.0424805
0.0424618
0.0424438
0.0424263
0.0424095
0.0423948
0.0423787
0.0370267
0.0397522
0.0400952
0.040325
0.040555
0.0407781
0.0409956
0.0412057
0.041405
0.0415888
0.041751
0.0418855
0.041993
0.0420881
0.042205
0.0424659
0.0427374
0.0428817
0.042929
0.042951
0.0429802
0.0430431
0.0431344
0.0432085
0.0432644
0.0433152
0.0433578
0.0433825
0.0433903
0.043391
0.0433961
0.0434176
0.043457
0.0434974
0.0435304
0.043559
0.0435877
0.0436179
0.0436486
0.0436793
0.0437109
0.043743
0.0437742
0.0438032
0.0438306
0.0438583
0.0438862
0.0439133
0.0439383
0.0439611
0.0439821
0.0440019
0.0440204
0.0440374
0.044052
0.0440634
0.0440712
0.0440759
0.0440777
0.0440763
0.0440726
0.0440662
0.0440566
0.0440437
0.0440281
0.0440098
0.043989
0.0439658
0.0439404
0.043913
0.0438836
0.0438526
0.0438199
0.0437859
0.0437505
0.0437141
0.0436765
0.0436383
0.0435993
0.04356
0.0435201
0.0434803
0.0434402
0.0434003
0.0433605
0.0433211
0.043282
0.0432434
0.0432052
0.0431677
0.0431309
0.0430948
0.0430594
0.0430249
0.0429911
0.0429583
0.0429263
0.0428952
0.042865
0.0428358
0.0428074
0.0427799
0.0427534
0.0427278
0.0427031
0.0426792
0.0426563
0.0426343
0.0426131
0.0425926
0.0425728
0.0425537
0.0425352
0.0425173
0.0425001
0.0424833
0.0424672
0.0424534
0.0424377
0.0424267
0.0423985
0.0369629
0.0397272
0.0400789
0.0403122
0.0405437
0.0407676
0.0409857
0.0411965
0.0413966
0.0415813
0.0417445
0.0418801
0.0419892
0.0420869
0.0422082
0.0424726
0.0427418
0.0428831
0.0429297
0.0429524
0.042983
0.0430469
0.0431369
0.0432094
0.0432647
0.0433153
0.0433573
0.043381
0.0433884
0.0433891
0.0433947
0.0434172
0.043457
0.0434971
0.0435298
0.0435583
0.043587
0.0436173
0.0436479
0.0436786
0.0437101
0.0437421
0.0437732
0.0438022
0.0438298
0.0438577
0.0438858
0.0439131
0.0439382
0.0439609
0.0439819
0.0440015
0.04402
0.044037
0.0440517
0.0440632
0.0440714
0.0440765
0.0440787
0.0440777
0.0440743
0.0440683
0.0440589
0.0440465
0.0440314
0.0440138
0.0439938
0.0439715
0.0439469
0.0439204
0.0438921
0.0438621
0.0438305
0.0437976
0.0437633
0.043728
0.0436917
0.0436546
0.0436169
0.0435787
0.0435402
0.0435017
0.0434629
0.0434244
0.043386
0.043348
0.0433102
0.043273
0.0432362
0.0432001
0.0431646
0.0431298
0.0430957
0.0430625
0.04303
0.0429984
0.0429677
0.0429378
0.0429088
0.0428806
0.0428534
0.042827
0.0428015
0.0427769
0.0427532
0.0427304
0.0427084
0.0426872
0.0426669
0.0426472
0.0426283
0.04261
0.0425922
0.042575
0.0425586
0.0425426
0.0425272
0.0425143
0.042499
0.0424884
0.0424608
0.0369003
0.0397024
0.0400629
0.0402998
0.0405328
0.0407574
0.0409761
0.0411875
0.0413884
0.0415739
0.0417381
0.0418748
0.0419855
0.0420857
0.0422114
0.0424792
0.042746
0.0428845
0.0429305
0.0429539
0.0429857
0.0430506
0.0431393
0.0432101
0.043265
0.0433154
0.0433566
0.0433795
0.0433864
0.0433872
0.0433934
0.0434169
0.0434571
0.0434968
0.0435291
0.0435575
0.0435863
0.0436166
0.0436472
0.0436779
0.0437092
0.0437412
0.0437723
0.0438013
0.0438291
0.0438572
0.0438854
0.0439129
0.043938
0.0439607
0.0439816
0.0440012
0.0440196
0.0440366
0.0440515
0.0440632
0.0440718
0.0440773
0.0440799
0.0440794
0.0440762
0.0440707
0.0440616
0.0440497
0.0440353
0.0440185
0.0439993
0.0439779
0.0439543
0.0439288
0.0439015
0.0438726
0.0438421
0.0438103
0.0437772
0.0437431
0.0437079
0.0436721
0.0436357
0.0435989
0.0435617
0.0435245
0.0434872
0.0434501
0.0434131
0.0433765
0.0433402
0.0433044
0.043269
0.0432343
0.0432002
0.0431668
0.0431341
0.0431022
0.043071
0.0430407
0.0430112
0.0429825
0.0429547
0.0429277
0.0429016
0.0428763
0.0428519
0.0428283
0.0428056
0.0427837
0.0427627
0.0427424
0.042723
0.0427042
0.042686
0.0426684
0.0426515
0.042635
0.0426193
0.0426045
0.04259
0.0425784
0.0425629
0.0425516
0.0425241
0.036839
0.0396778
0.0400474
0.0402877
0.0405222
0.0407475
0.0409668
0.0411788
0.0413803
0.0415667
0.0417318
0.0418696
0.0419819
0.0420846
0.0422147
0.0424856
0.0427501
0.0428858
0.0429314
0.0429555
0.0429885
0.0430541
0.0431415
0.0432108
0.0432652
0.0433154
0.043356
0.043378
0.0433845
0.0433853
0.0433922
0.0434166
0.0434571
0.0434964
0.0435284
0.0435567
0.0435856
0.0436159
0.0436465
0.0436771
0.0437083
0.0437402
0.0437714
0.0438005
0.0438284
0.0438567
0.0438851
0.0439127
0.0439378
0.0439606
0.0439814
0.044001
0.0440193
0.0440364
0.0440514
0.0440634
0.0440724
0.0440782
0.0440814
0.0440811
0.0440783
0.0440734
0.0440646
0.0440534
0.0440398
0.0440238
0.0440055
0.0439851
0.0439625
0.0439381
0.0439119
0.0438841
0.0438547
0.0438241
0.0437922
0.0437593
0.0437255
0.043691
0.0436559
0.0436205
0.0435847
0.043549
0.0435131
0.0434775
0.043442
0.0434068
0.043372
0.0433376
0.0433038
0.0432705
0.0432378
0.0432058
0.0431745
0.0431439
0.0431141
0.0430851
0.0430568
0.0430294
0.0430028
0.042977
0.042952
0.0429278
0.0429044
0.0428819
0.0428601
0.0428392
0.0428191
0.0427998
0.0427811
0.0427632
0.0427458
0.042729
0.0427127
0.042697
0.042682
0.0426683
0.0426546
0.0426431
0.0426277
0.0426167
0.0425894
0.0367788
0.0396535
0.0400321
0.0402761
0.040512
0.0407379
0.0409577
0.0411703
0.0413725
0.0415597
0.0417256
0.0418645
0.0419783
0.0420835
0.042218
0.0424918
0.042754
0.0428872
0.0429323
0.042957
0.0429913
0.0430575
0.0431435
0.0432115
0.0432654
0.0433154
0.0433553
0.0433765
0.0433826
0.0433835
0.043391
0.0434164
0.043457
0.043496
0.0435277
0.0435559
0.0435848
0.0436152
0.0436458
0.0436762
0.0437074
0.0437393
0.0437705
0.0437996
0.0438277
0.0438562
0.0438847
0.0439125
0.0439377
0.0439605
0.0439813
0.0440007
0.044019
0.0440362
0.0440513
0.0440637
0.0440731
0.0440793
0.0440829
0.0440832
0.044081
0.0440762
0.044068
0.0440576
0.0440448
0.0440298
0.0440125
0.0439931
0.0439716
0.0439482
0.0439231
0.0438965
0.0438683
0.0438389
0.0438082
0.0437766
0.0437442
0.043711
0.0436773
0.0436434
0.0436091
0.0435748
0.0435405
0.0435064
0.0434724
0.0434388
0.0434055
0.0433727
0.0433403
0.0433085
0.0432773
0.0432467
0.0432168
0.0431876
0.0431591
0.0431314
0.0431045
0.0430783
0.0430528
0.0430282
0.0430043
0.0429812
0.0429589
0.0429374
0.0429167
0.0428967
0.0428775
0.0428591
0.0428413
0.0428241
0.0428075
0.0427914
0.0427759
0.0427609
0.0427468
0.0427341
0.0427208
0.0427093
0.0426945
0.0426842
0.0426575
0.03672
0.0396294
0.0400173
0.0402647
0.040502
0.0407285
0.0409488
0.041162
0.0413648
0.0415528
0.0417195
0.0418594
0.0419748
0.0420824
0.0422212
0.0424979
0.0427578
0.0428885
0.0429333
0.0429587
0.042994
0.0430607
0.0431454
0.0432121
0.0432657
0.0433154
0.0433545
0.0433749
0.0433807
0.0433817
0.0433898
0.0434161
0.043457
0.0434956
0.0435269
0.0435551
0.0435841
0.0436145
0.043645
0.0436754
0.0437065
0.0437384
0.0437696
0.0437988
0.043827
0.0438557
0.0438844
0.0439123
0.0439376
0.0439604
0.0439812
0.0440006
0.0440188
0.0440361
0.0440515
0.0440641
0.044074
0.0440806
0.0440846
0.0440853
0.0440838
0.0440794
0.0440719
0.0440624
0.0440506
0.0440365
0.0440202
0.0440019
0.0439815
0.0439592
0.0439353
0.0439098
0.0438829
0.0438547
0.0438254
0.0437952
0.0437641
0.0437324
0.0437002
0.0436678
0.0436351
0.0436023
0.0435696
0.043537
0.0435046
0.0434726
0.0434408
0.0434095
0.0433786
0.0433483
0.0433186
0.0432895
0.043261
0.0432332
0.0432061
0.0431796
0.043154
0.043129
0.0431048
0.0430813
0.0430586
0.0430366
0.0430153
0.0429948
0.0429751
0.0429561
0.0429378
0.0429202
0.0429033
0.0428869
0.0428711
0.0428557
0.0428409
0.0428267
0.0428134
0.0428015
0.0427885
0.0427771
0.042763
0.0427536
0.0427276
0.0366622
0.0396056
0.0400027
0.0402538
0.0404924
0.0407194
0.0409402
0.0411539
0.0413574
0.041546
0.0417136
0.0418544
0.0419713
0.0420813
0.0422245
0.0425038
0.0427615
0.0428899
0.0429343
0.0429603
0.0429967
0.0430638
0.0431472
0.0432126
0.0432659
0.0433153
0.0433536
0.0433733
0.0433788
0.0433799
0.0433887
0.0434159
0.0434569
0.0434951
0.0435262
0.0435543
0.0435833
0.0436138
0.0436442
0.0436745
0.0437056
0.0437375
0.0437687
0.0437979
0.0438264
0.0438552
0.0438841
0.0439122
0.0439375
0.0439603
0.0439811
0.0440004
0.0440187
0.044036
0.0440517
0.0440647
0.0440749
0.044082
0.0440864
0.0440877
0.0440868
0.0440828
0.0440763
0.0440678
0.044057
0.0440439
0.0440287
0.0440114
0.0439921
0.0439711
0.0439483
0.043924
0.0438984
0.0438715
0.0438436
0.0438148
0.0437852
0.043755
0.0437244
0.0436935
0.0436624
0.0436312
0.0436001
0.0435691
0.0435383
0.0435079
0.0434777
0.043448
0.0434186
0.0433899
0.0433616
0.0433339
0.0433069
0.0432805
0.0432547
0.0432296
0.0432052
0.0431815
0.0431585
0.0431362
0.0431146
0.0430937
0.0430735
0.043054
0.0430352
0.0430172
0.0429998
0.042983
0.0429669
0.0429513
0.0429362
0.0429216
0.0429076
0.0428942
0.0428815
0.0428703
0.0428577
0.0428465
0.0428331
0.0428246
0.0427994
0.0366056
0.039582
0.0399885
0.0402431
0.040483
0.0407106
0.0409319
0.041146
0.0413501
0.0415394
0.0417077
0.0418495
0.0419679
0.0420803
0.0422278
0.0425097
0.042765
0.0428912
0.0429354
0.042962
0.0429994
0.0430668
0.0431488
0.0432132
0.0432661
0.0433152
0.0433527
0.0433717
0.0433769
0.0433782
0.0433877
0.0434157
0.0434567
0.0434946
0.0435254
0.0435534
0.0435826
0.043613
0.0436434
0.0436736
0.0437046
0.0437365
0.0437678
0.0437971
0.0438258
0.0438547
0.0438838
0.043912
0.0439375
0.0439603
0.0439811
0.0440003
0.0440186
0.0440361
0.044052
0.0440654
0.044076
0.0440836
0.0440885
0.0440903
0.0440902
0.0440868
0.0440813
0.0440739
0.044064
0.044052
0.0440379
0.0440217
0.0440036
0.0439837
0.0439621
0.0439392
0.0439148
0.0438894
0.0438629
0.0438356
0.0438075
0.0437789
0.0437499
0.0437207
0.0436912
0.0436617
0.0436322
0.0436029
0.0435737
0.0435449
0.0435163
0.0434881
0.0434604
0.0434331
0.0434063
0.0433801
0.0433545
0.0433295
0.0433051
0.0432813
0.0432582
0.0432357
0.0432139
0.0431927
0.0431722
0.0431524
0.0431333
0.0431148
0.043097
0.0430798
0.0430633
0.0430475
0.0430322
0.0430173
0.043003
0.0429891
0.0429759
0.0429632
0.0429512
0.0429406
0.0429283
0.0429173
0.0429047
0.0428971
0.0428726
0.0365501
0.0395586
0.0399746
0.0402328
0.0404739
0.0407021
0.0409237
0.0411383
0.0413429
0.0415329
0.0417019
0.0418447
0.0419645
0.0420793
0.0422311
0.0425153
0.0427684
0.0428926
0.0429365
0.0429637
0.043002
0.0430696
0.0431504
0.0432137
0.0432663
0.043315
0.0433518
0.04337
0.043375
0.0433765
0.0433867
0.0434155
0.0434566
0.0434941
0.0435246
0.0435526
0.0435818
0.0436122
0.0436425
0.0436727
0.0437037
0.0437356
0.0437669
0.0437963
0.0438251
0.0438542
0.0438835
0.0439119
0.0439374
0.0439603
0.043981
0.0440003
0.0440185
0.0440362
0.0440524
0.0440662
0.0440772
0.0440852
0.0440908
0.0440932
0.0440937
0.0440912
0.0440869
0.0440804
0.0440717
0.0440607
0.0440477
0.0440326
0.0440157
0.043997
0.0439768
0.0439551
0.0439322
0.0439082
0.0438832
0.0438574
0.043831
0.043804
0.0437767
0.0437491
0.0437213
0.0436935
0.0436657
0.0436381
0.0436106
0.0435833
0.0435564
0.0435298
0.0435036
0.0434779
0.0434526
0.0434279
0.0434037
0.0433801
0.043357
0.0433346
0.0433127
0.0432915
0.0432709
0.0432509
0.0432315
0.0432127
0.0431946
0.0431772
0.0431603
0.0431441
0.0431285
0.0431135
0.043099
0.0430849
0.0430713
0.0430582
0.0430457
0.0430337
0.0430223
0.0430123
0.0430003
0.0429897
0.0429778
0.0429712
0.0429474
0.0364957
0.0395353
0.0399611
0.0402228
0.0404651
0.0406937
0.0409158
0.0411308
0.0413359
0.0415265
0.0416963
0.0418399
0.0419611
0.0420784
0.0422344
0.0425209
0.0427718
0.042894
0.0429377
0.0429654
0.0430046
0.0430723
0.0431518
0.0432141
0.0432665
0.0433149
0.0433508
0.0433684
0.0433731
0.0433749
0.0433857
0.0434153
0.0434564
0.0434935
0.0435238
0.0435518
0.043581
0.0436114
0.0436417
0.0436717
0.0437027
0.0437347
0.043766
0.0437956
0.0438245
0.0438538
0.0438832
0.0439117
0.0439373
0.0439603
0.043981
0.0440002
0.0440186
0.0440365
0.044053
0.0440671
0.0440786
0.0440871
0.0440933
0.0440964
0.0440976
0.0440961
0.0440929
0.0440876
0.0440799
0.04407
0.0440581
0.0440442
0.0440284
0.044011
0.0439921
0.0439719
0.0439505
0.043928
0.0439046
0.0438805
0.0438557
0.0438305
0.0438049
0.043779
0.043753
0.0437269
0.0437008
0.0436749
0.043649
0.0436234
0.0435981
0.0435731
0.0435485
0.0435243
0.0435006
0.0434773
0.0434545
0.0434323
0.0434106
0.0433895
0.0433689
0.0433489
0.0433295
0.0433106
0.0432923
0.0432747
0.0432576
0.0432411
0.0432253
0.04321
0.0431953
0.0431811
0.0431674
0.0431541
0.0431413
0.0431289
0.0431172
0.0431059
0.043095
0.0430857
0.043074
0.0430639
0.0430527
0.043047
0.043024
0.0364423
0.0395124
0.0399478
0.0402131
0.0404566
0.0406857
0.0409081
0.0411235
0.0413291
0.0415203
0.0416907
0.0418352
0.0419579
0.0420775
0.0422377
0.0425263
0.042775
0.0428953
0.0429389
0.0429671
0.0430072
0.0430749
0.0431531
0.0432145
0.0432667
0.0433147
0.0433499
0.0433668
0.0433713
0.0433733
0.0433848
0.0434152
0.0434562
0.0434929
0.0435229
0.0435509
0.0435801
0.0436106
0.0436408
0.0436708
0.0437017
0.0437338
0.0437652
0.0437948
0.0438239
0.0438533
0.0438829
0.0439115
0.0439372
0.0439603
0.0439811
0.0440003
0.0440187
0.0440368
0.0440536
0.0440682
0.0440802
0.0440891
0.0440959
0.0440998
0.0441018
0.0441015
0.0440994
0.0440951
0.0440885
0.0440798
0.044069
0.0440562
0.0440418
0.0440258
0.0440083
0.0439895
0.0439696
0.0439487
0.043927
0.0439045
0.0438815
0.0438581
0.0438342
0.0438102
0.0437859
0.0437616
0.0437372
0.043713
0.0436888
0.0436649
0.0436412
0.0436179
0.0435949
0.0435722
0.04355
0.0435282
0.0435069
0.0434861
0.0434657
0.0434459
0.0434266
0.0434079
0.0433896
0.043372
0.0433548
0.0433382
0.0433222
0.0433067
0.0432918
0.0432775
0.0432636
0.0432503
0.0432374
0.0432249
0.0432128
0.0432012
0.0431903
0.0431796
0.0431693
0.0431605
0.0431492
0.0431395
0.043129
0.0431243
0.0431021
0.0363901
0.0394896
0.0399349
0.0402036
0.0404483
0.0406778
0.0409006
0.0411163
0.0413224
0.0415142
0.0416853
0.0418306
0.0419546
0.0420766
0.042241
0.0425316
0.0427781
0.0428967
0.0429401
0.0429689
0.0430097
0.0430774
0.0431543
0.0432149
0.0432668
0.0433145
0.0433489
0.0433651
0.0433694
0.0433717
0.0433839
0.043415
0.043456
0.0434923
0.0435221
0.04355
0.0435793
0.0436097
0.0436398
0.0436698
0.0437007
0.0437328
0.0437643
0.0437941
0.0438233
0.0438528
0.0438826
0.0439113
0.0439372
0.0439603
0.0439811
0.0440003
0.0440189
0.0440373
0.0440544
0.0440694
0.0440819
0.0440914
0.0440988
0.0441034
0.0441065
0.0441074
0.0441062
0.0441031
0.0440976
0.0440899
0.0440803
0.0440688
0.0440557
0.0440411
0.0440251
0.0440079
0.0439897
0.0439705
0.0439505
0.0439298
0.0439086
0.043887
0.043865
0.0438427
0.0438203
0.0437977
0.0437752
0.0437527
0.0437303
0.0437081
0.043686
0.0436643
0.0436429
0.0436218
0.0436011
0.0435808
0.0435609
0.0435415
0.0435225
0.043504
0.043486
0.0434685
0.0434515
0.043435
0.043419
0.0434034
0.0433885
0.043374
0.0433601
0.0433467
0.0433337
0.0433212
0.0433091
0.0432974
0.0432862
0.0432754
0.0432651
0.0432552
0.0432454
0.0432372
0.0432263
0.0432171
0.0432074
0.0432036
0.0431821
0.0363388
0.039467
0.0399222
0.0401945
0.0404402
0.0406702
0.0408932
0.0411093
0.0413159
0.0415082
0.0416799
0.041826
0.0419514
0.0420757
0.0422443
0.0425367
0.0427812
0.0428981
0.0429413
0.0429706
0.0430121
0.0430797
0.0431555
0.0432151
0.0432669
0.0433142
0.0433478
0.0433635
0.0433676
0.0433702
0.0433831
0.0434148
0.0434557
0.0434916
0.0435212
0.0435491
0.0435784
0.0436088
0.0436389
0.0436688
0.0436997
0.0437319
0.0437635
0.0437934
0.0438227
0.0438523
0.0438823
0.0439111
0.0439371
0.0439603
0.0439812
0.0440005
0.0440192
0.0440379
0.0440554
0.0440708
0.0440838
0.0440939
0.0441019
0.0441074
0.0441115
0.0441135
0.0441135
0.0441113
0.0441069
0.0441005
0.0440921
0.0440819
0.0440702
0.0440571
0.0440428
0.0440272
0.0440106
0.0439932
0.043975
0.0439562
0.0439368
0.043917
0.0438969
0.0438765
0.0438559
0.0438352
0.0438144
0.0437937
0.043773
0.0437525
0.0437322
0.0437121
0.0436923
0.0436728
0.0436536
0.0436348
0.0436164
0.0435984
0.0435808
0.0435637
0.043547
0.0435308
0.043515
0.0434996
0.0434847
0.0434703
0.0434564
0.043443
0.04343
0.0434175
0.0434055
0.0433938
0.0433826
0.0433717
0.0433612
0.0433511
0.0433416
0.0433324
0.0433231
0.0433154
0.0433049
0.0432963
0.0432871
0.0432838
0.0432635
0.0362886
0.0394445
0.0399099
0.0401856
0.0404324
0.0406627
0.0408861
0.0411025
0.0413095
0.0415024
0.0416747
0.0418215
0.0419483
0.0420748
0.0422475
0.0425418
0.0427842
0.0428995
0.0429426
0.0429724
0.0430145
0.043082
0.0431565
0.0432154
0.0432669
0.0433138
0.0433467
0.0433618
0.0433658
0.0433687
0.0433822
0.0434146
0.0434554
0.0434909
0.0435203
0.0435482
0.0435776
0.0436079
0.0436379
0.0436677
0.0436987
0.043731
0.0437626
0.0437927
0.0438221
0.0438519
0.043882
0.0439109
0.043937
0.0439604
0.0439813
0.0440007
0.0440196
0.0440386
0.0440565
0.0440723
0.0440858
0.0440965
0.0441052
0.0441117
0.0441167
0.04412
0.044121
0.0441198
0.0441166
0.0441114
0.0441043
0.0440955
0.0440854
0.0440738
0.0440611
0.0440473
0.0440325
0.0440169
0.0440006
0.0439837
0.0439662
0.0439484
0.0439301
0.0439116
0.0438929
0.0438741
0.0438551
0.0438362
0.0438173
0.0437985
0.0437799
0.0437615
0.0437433
0.0437254
0.0437078
0.0436905
0.0436736
0.043657
0.0436408
0.043625
0.0436096
0.0435946
0.0435801
0.0435659
0.0435522
0.0435389
0.043526
0.0435136
0.0435016
0.0434901
0.0434789
0.0434681
0.0434577
0.0434476
0.0434379
0.0434287
0.0434199
0.0434114
0.0434027
0.0433955
0.0433854
0.0433774
0.0433688
0.043366
0.043347
0.0362392
0.0394223
0.0398978
0.040177
0.0404248
0.0406555
0.0408791
0.0410959
0.0413033
0.0414966
0.0416695
0.0418171
0.0419452
0.042074
0.0422508
0.0425467
0.0427871
0.0429009
0.0429439
0.0429741
0.0430169
0.0430841
0.0431575
0.0432156
0.0432669
0.0433134
0.0433456
0.0433601
0.043364
0.0433672
0.0433815
0.0434144
0.0434551
0.0434902
0.0435194
0.0435473
0.0435767
0.043607
0.0436369
0.0436667
0.0436977
0.04373
0.0437618
0.043792
0.0438215
0.0438514
0.0438816
0.0439107
0.0439369
0.0439604
0.0439815
0.044001
0.0440202
0.0440395
0.0440577
0.0440739
0.044088
0.0440994
0.0441088
0.0441162
0.0441222
0.0441266
0.0441287
0.0441287
0.0441265
0.0441226
0.0441169
0.0441097
0.0441011
0.0440912
0.0440803
0.0440683
0.0440553
0.0440416
0.0440272
0.0440122
0.0439967
0.0439808
0.0439645
0.0439479
0.043931
0.0439141
0.043897
0.0438799
0.0438628
0.0438458
0.0438289
0.0438122
0.0437956
0.0437793
0.0437633
0.0437476
0.0437321
0.043717
0.0437023
0.0436878
0.0436738
0.0436601
0.0436467
0.0436338
0.0436212
0.043609
0.0435972
0.0435858
0.0435749
0.0435643
0.043554
0.0435441
0.0435345
0.0435252
0.0435163
0.0435079
0.0434998
0.0434921
0.043484
0.0434771
0.0434676
0.0434601
0.043452
0.0434498
0.043432
0.0361909
0.0394003
0.0398861
0.0401687
0.0404174
0.0406485
0.0408724
0.0410894
0.0412972
0.041491
0.0416644
0.0418127
0.0419422
0.0420732
0.0422541
0.0425516
0.04279
0.0429023
0.0429452
0.0429759
0.0430191
0.0430861
0.0431584
0.0432158
0.0432669
0.0433129
0.0433444
0.0433585
0.0433622
0.0433657
0.0433807
0.0434142
0.0434547
0.0434895
0.0435185
0.0435464
0.0435758
0.0436061
0.0436359
0.0436657
0.0436967
0.0437291
0.0437609
0.0437913
0.0438209
0.0438509
0.0438813
0.0439104
0.0439368
0.0439605
0.0439817
0.0440014
0.0440209
0.0440405
0.044059
0.0440757
0.0440902
0.0441023
0.0441125
0.044121
0.044128
0.0441334
0.0441367
0.0441379
0.0441369
0.0441343
0.04413
0.0441244
0.0441174
0.0441093
0.0441001
0.04409
0.044079
0.0440673
0.0440548
0.0440418
0.0440283
0.0440144
0.044
0.0439854
0.0439705
0.0439554
0.0439402
0.043925
0.0439097
0.0438945
0.0438793
0.0438643
0.0438494
0.0438348
0.0438203
0.0438062
0.0437922
0.0437786
0.0437652
0.0437522
0.0437394
0.043727
0.0437149
0.0437031
0.0436917
0.0436806
0.0436699
0.0436596
0.0436496
0.0436399
0.0436306
0.0436216
0.0436128
0.0436044
0.0435963
0.0435886
0.0435812
0.0435745
0.0435669
0.0435606
0.0435516
0.0435445
0.043537
0.0435353
0.0435189
0.0361434
0.0393784
0.0398746
0.0401606
0.0404102
0.0406416
0.0408658
0.0410831
0.0412912
0.0414855
0.0416594
0.0418084
0.0419392
0.0420725
0.0422573
0.0425563
0.0427928
0.0429037
0.0429465
0.0429776
0.0430214
0.0430881
0.0431592
0.043216
0.0432668
0.0433124
0.0433431
0.0433568
0.0433605
0.0433643
0.04338
0.043414
0.0434543
0.0434887
0.0435176
0.0435454
0.0435749
0.0436051
0.0436349
0.0436646
0.0436956
0.0437281
0.0437601
0.0437906
0.0438203
0.0438503
0.0438809
0.0439102
0.0439367
0.0439606
0.043982
0.0440019
0.0440216
0.0440415
0.0440604
0.0440776
0.0440927
0.0441055
0.0441164
0.0441259
0.044134
0.0441404
0.0441449
0.0441472
0.0441476
0.0441463
0.0441436
0.0441396
0.0441344
0.0441281
0.0441208
0.0441126
0.0441035
0.0440937
0.0440833
0.0440723
0.0440608
0.0440488
0.0440365
0.0440238
0.0440109
0.0439977
0.0439844
0.043971
0.0439576
0.0439441
0.0439308
0.0439175
0.0439043
0.0438913
0.0438785
0.0438659
0.0438535
0.0438414
0.0438294
0.0438178
0.0438064
0.0437953
0.0437845
0.0437739
0.0437637
0.0437537
0.0437441
0.0437348
0.0437258
0.0437171
0.0437087
0.0437006
0.0436927
0.0436851
0.0436778
0.0436709
0.0436642
0.0436583
0.0436512
0.0436452
0.0436367
0.0436302
0.0436232
0.0436218
0.0436066
0.0360969
0.0393567
0.0398634
0.0401528
0.0404033
0.040635
0.0408593
0.0410769
0.0412854
0.0414801
0.0416544
0.0418042
0.0419363
0.0420717
0.0422605
0.0425609
0.0427955
0.0429051
0.0429479
0.0429793
0.0430235
0.0430899
0.0431601
0.0432162
0.0432668
0.0433118
0.0433419
0.043355
0.0433587
0.0433629
0.0433793
0.0434138
0.0434539
0.043488
0.0435166
0.0435445
0.0435739
0.0436041
0.0436338
0.0436635
0.0436946
0.0437271
0.0437592
0.0437899
0.0438197
0.0438498
0.0438805
0.0439099
0.0439366
0.0439607
0.0439823
0.0440024
0.0440225
0.0440427
0.0440619
0.0440796
0.0440952
0.0441087
0.0441206
0.0441311
0.0441403
0.0441477
0.0441533
0.0441569
0.0441587
0.0441588
0.0441577
0.0441554
0.044152
0.0441475
0.0441421
0.0441359
0.0441288
0.044121
0.0441126
0.0441037
0.0440942
0.0440843
0.044074
0.0440633
0.0440523
0.0440411
0.0440297
0.0440182
0.0440067
0.0439951
0.0439835
0.043972
0.0439605
0.0439492
0.043938
0.043927
0.0439161
0.0439054
0.043895
0.0438847
0.0438747
0.0438649
0.0438553
0.043846
0.0438369
0.0438281
0.0438196
0.0438113
0.0438033
0.0437956
0.0437881
0.0437808
0.0437738
0.043767
0.0437606
0.0437544
0.0437484
0.0437433
0.0437367
0.043731
0.0437233
0.0437175
0.0437111
0.0437101
0.0436961
0.0360512
0.0393352
0.0398525
0.0401452
0.0403965
0.0406285
0.040853
0.0410708
0.0412796
0.0414747
0.0416496
0.0418
0.0419334
0.042071
0.0422637
0.0425654
0.0427982
0.0429065
0.0429492
0.042981
0.0430256
0.0430917
0.0431608
0.0432164
0.0432668
0.0433113
0.0433406
0.0433533
0.043357
0.0433616
0.0433787
0.0434136
0.0434534
0.0434872
0.0435157
0.0435435
0.0435729
0.0436031
0.0436327
0.0436624
0.0436935
0.0437261
0.0437584
0.0437892
0.0438191
0.0438493
0.04388
0.0439096
0.0439365
0.0439608
0.0439826
0.044003
0.0440234
0.0440439
0.0440635
0.0440817
0.0440979
0.0441122
0.044125
0.0441365
0.0441467
0.0441553
0.0441619
0.0441668
0.04417
0.0441718
0.0441723
0.0441717
0.0441701
0.0441676
0.0441641
0.0441598
0.0441548
0.044149
0.0441426
0.0441357
0.0441283
0.0441204
0.0441121
0.0441034
0.0440944
0.0440852
0.0440757
0.0440662
0.0440565
0.0440467
0.044037
0.0440273
0.0440176
0.0440079
0.0439984
0.043989
0.0439797
0.0439706
0.0439616
0.0439528
0.0439441
0.0439356
0.0439274
0.0439193
0.0439114
0.0439038
0.0438964
0.0438892
0.0438822
0.0438755
0.0438689
0.0438625
0.0438564
0.0438505
0.0438448
0.0438394
0.0438342
0.0438299
0.0438236
0.0438182
0.0438112
0.0438062
0.0438005
0.0437998
0.0437871
0.0360064
0.0393139
0.0398419
0.0401378
0.0403899
0.0406222
0.0408469
0.0410649
0.041274
0.0414695
0.0416448
0.0417959
0.0419306
0.0420703
0.042267
0.0425699
0.0428008
0.042908
0.0429505
0.0429827
0.0430277
0.0430934
0.0431615
0.0432167
0.0432668
0.0433107
0.0433393
0.0433516
0.0433552
0.0433602
0.0433781
0.0434133
0.0434529
0.0434863
0.0435147
0.0435425
0.043572
0.043602
0.0436316
0.0436613
0.0436925
0.0437252
0.0437575
0.0437885
0.0438185
0.0438488
0.0438796
0.0439092
0.0439364
0.0439609
0.0439831
0.0440037
0.0440245
0.0440453
0.0440652
0.0440839
0.0441007
0.0441159
0.0441296
0.0441422
0.0441534
0.0441631
0.0441709
0.0441771
0.0441818
0.0441851
0.0441874
0.0441886
0.0441888
0.0441882
0.0441866
0.0441843
0.0441813
0.0441776
0.0441733
0.0441685
0.0441631
0.0441573
0.044151
0.0441444
0.0441374
0.0441302
0.0441227
0.0441151
0.0441073
0.0440995
0.0440916
0.0440836
0.0440757
0.0440678
0.0440599
0.0440522
0.0440445
0.0440368
0.0440293
0.044022
0.0440147
0.0440076
0.0440006
0.0439937
0.043987
0.0439805
0.0439742
0.0439681
0.0439622
0.0439564
0.0439507
0.0439453
0.04394
0.0439349
0.0439301
0.0439255
0.043921
0.0439175
0.0439115
0.0439064
0.0439003
0.0438961
0.043891
0.0438907
0.0438794
0.0359622
0.0392927
0.0398315
0.0401307
0.0403835
0.040616
0.0408409
0.0410591
0.0412685
0.0414644
0.0416401
0.0417918
0.0419278
0.0420697
0.0422701
0.0425743
0.0428034
0.0429094
0.0429519
0.0429843
0.0430296
0.0430949
0.0431622
0.0432169
0.0432668
0.0433102
0.043338
0.0433499
0.0433535
0.0433589
0.0433774
0.0434131
0.0434524
0.0434855
0.0435137
0.0435415
0.043571
0.043601
0.0436305
0.0436601
0.0436914
0.0437242
0.0437567
0.0437878
0.0438179
0.0438482
0.0438791
0.0439088
0.0439363
0.0439611
0.0439835
0.0440045
0.0440255
0.0440466
0.044067
0.0440862
0.0441037
0.0441197
0.0441344
0.0441481
0.0441603
0.0441711
0.0441801
0.0441877
0.0441939
0.0441989
0.0442028
0.0442059
0.044208
0.0442093
0.0442097
0.0442094
0.0442084
0.0442067
0.0442044
0.0442017
0.0441983
0.0441946
0.0441904
0.0441858
0.0441808
0.0441756
0.0441702
0.0441645
0.0441587
0.0441528
0.0441467
0.0441407
0.0441345
0.0441284
0.0441223
0.0441162
0.0441101
0.044104
0.044098
0.0440921
0.0440863
0.0440805
0.0440749
0.0440693
0.0440639
0.0440586
0.0440534
0.0440484
0.0440435
0.0440387
0.044034
0.0440295
0.0440251
0.044021
0.044017
0.0440132
0.0440093
0.0440065
0.0440009
0.0439963
0.0439911
0.0439876
0.0439831
0.043983
0.0439732
0.0359189
0.0392717
0.0398214
0.0401238
0.0403773
0.04061
0.0408351
0.0410535
0.0412631
0.0414594
0.0416355
0.0417879
0.0419251
0.042069
0.0422733
0.0425786
0.0428059
0.0429108
0.0429533
0.042986
0.0430316
0.0430964
0.0431628
0.0432171
0.0432668
0.0433096
0.0433367
0.0433482
0.0433518
0.0433576
0.0433768
0.0434128
0.0434519
0.0434846
0.0435127
0.0435405
0.0435699
0.0435999
0.0436294
0.043659
0.0436903
0.0437232
0.0437559
0.0437871
0.0438172
0.0438476
0.0438785
0.0439084
0.0439361
0.0439612
0.043984
0.0440053
0.0440267
0.0440481
0.0440689
0.0440887
0.0441069
0.0441238
0.0441395
0.0441541
0.0441675
0.0441793
0.0441897
0.0441986
0.0442063
0.044213
0.0442187
0.0442235
0.0442276
0.0442308
0.0442332
0.0442349
0.0442359
0.0442363
0.0442361
0.0442354
0.0442342
0.0442325
0.0442304
0.0442279
0.044225
0.0442219
0.0442185
0.0442149
0.044211
0.0442071
0.0442029
0.0441987
0.0441944
0.0441901
0.0441857
0.0441812
0.0441768
0.0441723
0.0441679
0.0441634
0.044159
0.0441546
0.0441503
0.044146
0.0441418
0.0441376
0.0441336
0.0441296
0.0441258
0.044122
0.0441183
0.0441147
0.0441112
0.0441079
0.0441048
0.0441018
0.0440984
0.044096
0.044091
0.0440872
0.0440826
0.0440798
0.044076
0.0440763
0.0440677
0.0358762
0.0392509