/*--------------------------------*- C++ -*----------------------------------*\
| =========                 |                                                 |
| \\      /  F ield         | OpenFOAM: The Open Source CFD Toolbox           |
|  \\    /   O peration     | Version:  2412                                  |
|   \\  /    A nd           | Website:  www.openfoam.com                      |
|    \\/     M anipulation  |                                                 |
\*---------------------------------------------------------------------------*/
FoamFile
{
    version     2.0;
    format      ascii;
    arch        "LSB;label=32;scalar=64";
    class       volScalarField;
    location    "0.037";
    object      T;
}
// * * * * * * * * * * * * * * * * * * * * * * * * * * * * * * * * * * * * * //

dimensions      [0 0 0 1 0 0 0];

internalField   nonuniform List<scalar> 
9771
(
188.238
209.738
215.534
217.242
218.185
218.825
219.308
219.685
219.989
220.247
188.139
209.617
215.523
217.238
218.181
218.821
219.304
219.68
219.984
220.242
188.052
209.491
215.512
217.234
218.176
218.817
219.299
219.675
219.979
220.236
187.97
209.361
215.503
217.229
218.172
218.813
219.295
219.67
219.974
220.231
187.89
209.223
215.494
217.224
218.167
218.809
219.291
219.666
219.969
220.226
187.802
209.079
215.487
217.22
218.163
218.805
219.286
219.661
219.963
220.22
187.71
208.926
215.48
217.215
218.158
218.801
219.282
219.656
219.958
220.215
220.446
220.668
220.884
221.087
221.275
221.454
221.629
221.801
221.973
222.146
222.32
222.495
222.669
222.842
223.015
223.186
223.353
223.517
223.681
223.847
224.013
224.177
187.611
208.765
215.474
217.21
218.154
218.797
219.278
219.651
219.953
220.209
220.441
220.663
220.879
221.082
221.27
221.449
221.624
221.795
221.966
222.139
222.313
222.487
222.661
222.834
223.006
223.176
223.343
223.506
223.67
223.835
224.001
224.164
224.324
224.479
224.627
224.771
224.912
225.05
187.5
208.597
215.469
217.205
218.149
218.793
219.273
219.646
219.947
220.204
220.435
220.657
220.873
221.076
221.264
221.443
221.618
221.789
221.96
222.132
222.306
222.48
222.653
222.825
222.996
223.166
223.332
223.495
223.658
223.823
223.988
224.151
224.31
224.464
224.612
224.756
224.895
225.032
225.165
187.358
208.431
215.467
217.201
218.145
218.789
219.269
219.641
219.942
220.198
220.429
220.652
220.868
221.071
221.259
221.438
221.612
221.783
221.954
222.126
222.299
222.472
222.645
222.816
222.987
223.156
223.322
223.484
223.647
223.811
223.975
224.137
224.296
224.449
224.597
224.74
224.879
225.015
225.147
187.119
208.309
215.463
217.196
218.14
218.785
219.264
219.636
219.937
220.193
220.424
220.646
220.862
221.065
221.253
221.432
221.606
221.777
221.948
222.119
222.292
222.465
222.637
222.808
222.977
223.146
223.311
223.473
223.635
223.799
223.962
224.124
224.282
224.435
224.582
224.724
224.862
224.997
225.129
183.639
209.226
215.475
217.057
218.034
218.693
219.171
219.538
219.837
220.095
220.33
220.558
220.777
220.983
221.173
221.353
221.528
221.698
221.867
222.037
222.206
222.375
222.542
222.708
222.873
223.036
223.197
223.355
223.513
223.671
223.829
223.985
224.137
224.285
224.427
224.564
224.696
224.825
224.949
225.07
225.186
225.298
225.405
225.509
225.609
225.706
225.8
225.891
225.98
226.066
226.149
226.23
226.307
226.381
226.453
226.522
226.589
226.654
226.717
226.777
226.835
226.891
226.944
226.994
227.042
227.086
227.126
227.163
227.197
227.227
227.255
227.279
227.298
227.314
227.327
227.337
227.345
227.349
227.351
191.93
212.347
215.535
216.847
217.863
218.533
219
219.356
219.65
219.911
220.154
220.391
220.617
220.827
221.021
221.204
221.379
221.549
221.715
221.88
222.044
222.205
222.364
222.519
222.673
222.827
222.98
223.13
223.279
223.427
223.574
223.719
223.86
223.998
224.131
224.257
224.377
224.493
224.604
224.711
224.813
224.911
225.004
225.092
225.176
225.255
225.331
225.402
225.469
225.531
225.587
225.639
225.686
225.728
225.767
225.801
225.83
225.856
225.878
225.896
225.911
225.921
225.928
225.931
225.931
225.927
225.918
225.906
225.892
225.875
225.857
225.836
225.812
225.786
225.757
225.727
225.697
225.665
225.633
197.989
213.559
215.472
216.755
217.756
218.398
218.845
219.188
219.477
219.738
219.986
220.228
220.458
220.67
220.867
221.053
221.23
221.4
221.564
221.725
221.883
222.037
222.187
222.332
222.477
222.621
222.765
222.906
223.046
223.184
223.32
223.451
223.58
223.706
223.828
223.943
224.051
224.153
224.251
224.344
224.432
224.515
224.592
224.664
224.731
224.794
224.851
224.904
224.951
224.992
225.027
225.058
225.084
225.106
225.124
225.137
225.146
225.151
225.153
225.151
225.147
225.14
225.13
225.119
225.104
225.088
225.069
225.048
225.026
225.003
224.979
224.954
224.928
224.902
224.875
224.848
224.821
224.795
224.768
201.705
214.138
215.609
216.745
217.674
218.281
218.708
219.038
219.321
219.58
219.829
220.073
220.303
220.516
220.714
220.901
221.079
221.248
221.411
221.568
221.72
221.867
222.008
222.144
222.28
222.416
222.55
222.682
222.811
222.939
223.063
223.183
223.298
223.411
223.52
223.623
223.72
223.81
223.896
223.976
224.052
224.121
224.185
224.243
224.296
224.344
224.387
224.425
224.457
224.485
224.507
224.525
224.54
224.55
224.557
224.561
224.562
224.559
224.553
224.545
224.535
224.524
224.511
224.497
224.482
224.466
224.449
224.431
224.412
224.393
224.374
224.355
224.336
224.317
224.298
224.279
224.261
224.243
224.225
204.786
214.421
215.728
216.722
217.603
218.176
218.583
218.904
219.181
219.436
219.683
219.925
220.153
220.365
220.563
220.751
220.928
221.096
221.256
221.409
221.556
221.695
221.828
221.957
222.084
222.211
222.336
222.458
222.577
222.694
222.808
222.915
223.018
223.117
223.213
223.305
223.391
223.471
223.546
223.616
223.681
223.74
223.794
223.842
223.884
223.922
223.956
223.986
224.011
224.031
224.047
224.059
224.068
224.074
224.078
224.079
224.077
224.073
224.068
224.061
224.052
224.043
224.033
224.022
224.011
223.999
223.987
223.974
223.961
223.947
223.934
223.92
223.906
223.892
223.879
223.865
223.851
223.838
223.825
207.512
214.577
215.808
216.681
217.536
218.072
218.465
218.783
219.058
219.308
219.55
219.786
220.009
220.218
220.415
220.601
220.777
220.943
221.1
221.249
221.39
221.523
221.648
221.77
221.889
222.008
222.124
222.236
222.345
222.451
222.555
222.652
222.744
222.832
222.916
222.996
223.072
223.142
223.209
223.27
223.327
223.378
223.424
223.465
223.502
223.534
223.563
223.588
223.609
223.627
223.641
223.651
223.659
223.665
223.669
223.671
223.672
223.671
223.668
223.664
223.659
223.653
223.645
223.638
223.63
223.622
223.613
223.604
223.595
223.586
223.576
223.567
223.558
223.549
223.54
223.531
223.523
223.515
223.507
209.855
214.733
215.679
216.625
217.472
217.969
218.355
218.673
218.947
219.192
219.428
219.656
219.873
220.077
220.27
220.454
220.627
220.79
220.944
221.088
221.223
221.35
221.469
221.584
221.696
221.807
221.914
222.017
222.117
222.214
222.307
222.396
222.479
222.557
222.63
222.701
222.767
222.83
222.889
222.944
222.994
223.039
223.08
223.117
223.151
223.18
223.206
223.229
223.25
223.267
223.281
223.293
223.303
223.31
223.316
223.32
223.322
223.324
223.324
223.322
223.32
223.317
223.314
223.31
223.306
223.302
223.298
223.293
223.289
223.284
223.279
223.274
223.269
223.264
223.259
223.253
223.248
223.242
223.236
211.764
215.053
215.578
216.59
217.397
217.867
218.253
218.573
218.849
219.089
219.317
219.536
219.744
219.942
220.131
220.311
220.48
220.639
220.789
220.928
221.057
221.178
221.292
221.401
221.506
221.609
221.708
221.803
221.895
221.983
222.066
222.147
222.223
222.294
222.36
222.422
222.481
222.537
222.59
222.639
222.684
222.725
222.763
222.798
222.829
222.857
222.882
222.905
222.926
222.944
222.959
222.973
222.985
222.995
223.002
223.009
223.014
223.018
223.021
223.024
223.025
223.026
223.026
223.026
223.025
223.024
223.023
223.021
223.019
223.016
223.014
223.011
223.008
223.006
223.003
223.001
222.999
222.997
222.995
213.27
215.432
215.589
216.538
217.288
217.769
218.161
218.483
218.759
218.997
219.218
219.426
219.624
219.814
219.997
220.171
220.336
220.491
220.635
220.769
220.893
221.008
221.117
221.221
221.32
221.415
221.506
221.595
221.68
221.76
221.836
221.908
221.978
222.043
222.104
222.16
222.214
222.264
222.312
222.356
222.398
222.437
222.472
222.505
222.535
222.562
222.587
222.61
222.63
222.649
222.666
222.681
222.694
222.706
222.716
222.725
222.733
222.739
222.745
222.75
222.755
222.759
222.762
222.765
222.767
222.769
222.771
222.772
222.774
222.775
222.776
222.778
222.779
222.78
222.781
222.781
222.782
222.782
222.783
214.434
215.795
215.703
216.583
217.207
217.69
218.08
218.401
218.677
218.913
219.127
219.325
219.513
219.694
219.869
220.037
220.196
220.345
220.485
220.613
220.731
220.841
220.946
221.045
221.139
221.227
221.311
221.393
221.472
221.546
221.615
221.681
221.745
221.805
221.861
221.914
221.963
222.01
222.054
222.096
222.135
222.172
222.206
222.237
222.267
222.294
222.319
222.342
222.363
222.383
222.4
222.417
222.432
222.446
222.458
222.469
222.48
222.489
222.498
222.506
222.514
222.52
222.527
222.532
222.537
222.542
222.546
222.55
222.554
222.557
222.56
222.562
222.564
222.566
222.568
222.57
222.571
222.572
222.573
215.322
216.105
215.862
216.654
217.16
217.634
218.009
218.324
218.601
218.835
219.045
219.234
219.411
219.582
219.748
219.908
220.06
220.204
220.338
220.461
220.573
220.679
220.779
220.874
220.962
221.045
221.123
221.199
221.273
221.342
221.406
221.466
221.525
221.58
221.633
221.683
221.73
221.774
221.815
221.855
221.892
221.928
221.961
221.992
222.021
222.049
222.074
222.098
222.12
222.141
222.16
222.178
222.195
222.21
222.225
222.238
222.251
222.263
222.273
222.284
222.293
222.302
222.31
222.317
222.324
222.331
222.337
222.343
222.349
222.354
222.359
222.363
222.368
222.372
222.376
222.38
222.385
222.389
222.393
215.992
216.397
216.063
216.748
217.145
217.593
217.947
218.254
218.528
218.763
218.968
219.149
219.317
219.478
219.635
219.786
219.931
220.067
220.195
220.312
220.42
220.521
220.617
220.707
220.792
220.87
220.943
221.013
221.081
221.146
221.207
221.263
221.317
221.369
221.418
221.466
221.511
221.553
221.593
221.631
221.668
221.702
221.735
221.766
221.795
221.823
221.848
221.873
221.896
221.917
221.937
221.956
221.974
221.991
222.007
222.022
222.036
222.05
222.062
222.074
222.085
222.096
222.106
222.116
222.125
222.134
222.142
222.151
222.159
222.166
222.174
222.182
222.189
222.196
222.203
222.209
222.215
222.22
222.226
216.52
216.669
216.276
216.865
217.159
217.566
217.894
218.191
218.461
218.693
218.895
219.07
219.23
219.382
219.529
219.671
219.807
219.937
220.058
220.169
220.272
220.368
220.46
220.547
220.627
220.701
220.771
220.836
220.899
220.96
221.017
221.07
221.122
221.17
221.217
221.262
221.305
221.347
221.386
221.423
221.458
221.492
221.525
221.555
221.584
221.612
221.638
221.662
221.685
221.708
221.728
221.748
221.767
221.785
221.803
221.819
221.835
221.85
221.865
221.879
221.892
221.905
221.918
221.93
221.943
221.954
221.966
221.977
221.988
221.998
222.008
222.018
222.027
222.036
222.045
222.053
222.061
222.069
222.076
216.947
216.921
216.487
216.994
217.189
217.549
217.851
218.135
218.397
218.626
218.825
218.995
219.149
219.292
219.43
219.563
219.691
219.812
219.926
220.031
220.129
220.221
220.309
220.392
220.469
220.54
220.606
220.668
220.727
220.783
220.838
220.889
220.937
220.983
221.028
221.071
221.113
221.153
221.191
221.227
221.262
221.295
221.327
221.358
221.386
221.414
221.44
221.465
221.489
221.511
221.533
221.554
221.574
221.594
221.613
221.631
221.649
221.666
221.683
221.699
221.715
221.731
221.746
221.761
221.775
221.789
221.803
221.816
221.829
221.841
221.853
221.865
221.876
221.886
221.897
221.907
221.916
221.926
221.934
217.31
217.154
216.673
217.108
217.238
217.551
217.82
218.087
218.338
218.562
218.756
218.923
219.072
219.209
219.338
219.462
219.581
219.694
219.801
219.9
219.993
220.081
220.164
220.243
220.317
220.386
220.449
220.508
220.564
220.617
220.668
220.716
220.763
220.807
220.85
220.892
220.932
220.971
221.008
221.044
221.078
221.111
221.142
221.172
221.201
221.228
221.254
221.28
221.304
221.328
221.35
221.373
221.394
221.415
221.436
221.456
221.476
221.495
221.514
221.532
221.55
221.568
221.585
221.602
221.618
221.634
221.649
221.664
221.679
221.693
221.707
221.72
221.733
221.746
221.758
221.77
221.782
221.793
221.803
217.617
217.366
216.843
217.188
217.307
217.574
217.807
218.047
218.283
218.5
218.69
218.854
218.999
219.13
219.252
219.368
219.478
219.583
219.682
219.775
219.863
219.946
220.026
220.101
220.172
220.238
220.3
220.357
220.41
220.46
220.508
220.554
220.599
220.642
220.683
220.723
220.762
220.8
220.836
220.871
220.905
220.937
220.968
220.998
221.026
221.054
221.08
221.106
221.131
221.156
221.18
221.203
221.226
221.249
221.271
221.292
221.314
221.335
221.355
221.376
221.396
221.415
221.434
221.453
221.471
221.489
221.507
221.524
221.54
221.557
221.572
221.587
221.602
221.616
221.63
221.644
221.657
221.669
221.681
217.875
217.555
217.014
217.253
217.363
217.6
217.803
218.018
218.235
218.441
218.625
218.786
218.928
219.055
219.171
219.28
219.382
219.479
219.571
219.658
219.74
219.819
219.894
219.966
220.033
220.097
220.157
220.212
220.264
220.312
220.358
220.401
220.444
220.485
220.525
220.564
220.602
220.638
220.674
220.708
220.741
220.772
220.803
220.832
220.861
220.888
220.915
220.942
220.968
220.993
221.018
221.043
221.067
221.091
221.115
221.138
221.161
221.184
221.207
221.23
221.251
221.273
221.294
221.315
221.335
221.355
221.374
221.393
221.411
221.429
221.446
221.463
221.479
221.494
221.509
221.523
221.537
221.55
221.563
218.089
217.727
217.188
217.318
217.4
217.612
217.803
217.997
218.194
218.385
218.562
218.72
218.859
218.983
219.095
219.197
219.292
219.382
219.466
219.547
219.625
219.699
219.769
219.837
219.902
219.963
220.02
220.074
220.125
220.172
220.216
220.258
220.299
220.339
220.377
220.415
220.451
220.486
220.52
220.553
220.585
220.616
220.646
220.675
220.703
220.731
220.759
220.786
220.812
220.839
220.865
220.891
220.917
220.943
220.968
220.994
221.019
221.044
221.069
221.093
221.117
221.14
221.163
221.186
221.208
221.229
221.25
221.27
221.289
221.308
221.326
221.344
221.361
221.377
221.394
221.409
221.424
221.439
221.454
218.269
217.88
217.354
217.381
217.428
217.617
217.801
217.98
218.158
218.334
218.502
218.655
218.793
218.914
219.022
219.119
219.208
219.291
219.369
219.444
219.516
219.585
219.652
219.715
219.777
219.835
219.89
219.943
219.992
220.038
220.082
220.123
220.162
220.201
220.238
220.274
220.309
220.342
220.375
220.406
220.437
220.467
220.497
220.526
220.554
220.582
220.61
220.638
220.666
220.694
220.721
220.749
220.777
220.805
220.832
220.86
220.887
220.914
220.941
220.967
220.992
221.017
221.042
221.066
221.089
221.111
221.133
221.154
221.175
221.196
221.217
221.237
221.257
221.277
221.297
221.316
221.335
221.353
221.372
218.42
218.02
217.503
217.434
217.453
217.62
217.8
217.967
218.128
218.289
218.445
218.593
218.727
218.847
218.952
219.045
219.129
219.205
219.278
219.347
219.414
219.479
219.541
219.601
219.658
219.714
219.767
219.818
219.866
219.911
219.954
219.994
220.033
220.07
220.106
220.141
220.174
220.207
220.238
220.268
220.298
220.327
220.356
220.385
220.414
220.443
220.471
220.5
220.529
220.559
220.588
220.618
220.648
220.677
220.707
220.736
220.765
220.794
220.822
220.85
220.877
220.903
220.929
220.954
220.979
221.004
221.028
221.052
221.077
221.101
221.126
221.151
221.176
221.2
221.225
221.249
221.273
221.297
221.32
218.549
218.146
217.633
217.483
217.477
217.622
217.798
217.956
218.103
218.249
218.393
218.533
218.664
218.781
218.885
218.975
219.054
219.125
219.192
219.256
219.319
219.379
219.437
219.493
219.547
219.6
219.65
219.699
219.745
219.79
219.832
219.872
219.911
219.947
219.982
220.016
220.048
220.079
220.109
220.138
220.167
220.196
220.224
220.253
220.283
220.312
220.342
220.372
220.403
220.434
220.465
220.497
220.528
220.56
220.591
220.622
220.653
220.683
220.712
220.741
220.769
220.797
220.825
220.853
220.881
220.91
220.94
220.969
221
221.03
221.061
221.092
221.123
221.154
221.184
221.215
221.244
221.274
221.302
218.657
218.253
217.745
217.53
217.501
217.626
217.795
217.946
218.083
218.214
218.346
218.477
218.603
218.717
218.819
218.907
218.983
219.05
219.112
219.171
219.229
219.286
219.34
219.392
219.443
219.492
219.54
219.586
219.631
219.674
219.716
219.755
219.793
219.829
219.863
219.896
219.927
219.957
219.986
220.015
220.043
220.072
220.101
220.13
220.16
220.191
220.222
220.253
220.286
220.318
220.351
220.384
220.417
220.45
220.482
220.515
220.546
220.577
220.608
220.639
220.67
220.701
220.734
220.768
220.803
220.839
220.877
220.915
220.953
220.991
221.029
221.067
221.104
221.141
221.177
221.212
221.246
221.28
221.313
218.746
218.343
217.841
217.577
217.527
217.63
217.792
217.937
218.065
218.184
218.304
218.425
218.544
218.655
218.755
218.842
218.915
218.979
219.037
219.092
219.145
219.198
219.249
219.298
219.345
219.391
219.436
219.48
219.523
219.565
219.605
219.644
219.681
219.716
219.75
219.781
219.812
219.841
219.87
219.898
219.927
219.956
219.985
220.015
220.046
220.078
220.11
220.143
220.177
220.211
220.245
220.279
220.313
220.347
220.38
220.414
220.447
220.48
220.514
220.549
220.586
220.625
220.666
220.71
220.754
220.8
220.847
220.893
220.939
220.985
221.029
221.072
221.115
221.157
221.198
221.238
221.278
221.316
221.353
218.817
218.416
217.924
217.626
217.555
217.635
217.787
217.929
218.049
218.158
218.266
218.377
218.489
218.596
218.693
218.778
218.851
218.912
218.966
219.017
219.067
219.115
219.163
219.209
219.253
219.296
219.339
219.38
219.421
219.461
219.5
219.538
219.574
219.608
219.641
219.672
219.701
219.73
219.758
219.787
219.816
219.845
219.875
219.907
219.939
219.972
220.005
220.039
220.074
220.109
220.144
220.179
220.214
220.249
220.284
220.32
220.357
220.395
220.436
220.48
220.527
220.577
220.63
220.683
220.737
220.791
220.845
220.899
220.951
221.003
221.054
221.104
221.153
221.199
221.245
221.289
221.331
221.372
221.411
218.873
218.476
217.996
217.675
217.587
217.642
217.783
217.92
218.035
218.134
218.232
218.333
218.436
218.538
218.633
218.717
218.788
218.848
218.9
218.947
218.993
219.038
219.082
219.125
219.167
219.208
219.247
219.286
219.325
219.363
219.4
219.436
219.471
219.504
219.535
219.566
219.595
219.623
219.651
219.68
219.71
219.74
219.771
219.804
219.837
219.871
219.906
219.941
219.976
220.012
220.048
220.085
220.121
220.159
220.197
220.238
220.282
220.33
220.383
220.439
220.499
220.56
220.622
220.684
220.745
220.807
220.868
220.928
220.988
221.045
221.101
221.156
221.208
221.258
221.306
221.352
221.396
221.439
221.479
218.915
218.527
218.058
217.722
217.62
217.65
217.776
217.91
218.021
218.114
218.201
218.293
218.388
218.484
218.575
218.657
218.728
218.787
218.837
218.881
218.924
218.965
219.007
219.047
219.086
219.124
219.162
219.199
219.235
219.271
219.306
219.34
219.373
219.404
219.435
219.464
219.492
219.52
219.549
219.579
219.609
219.641
219.673
219.707
219.741
219.776
219.811
219.847
219.884
219.921
219.958
219.997
220.036
220.079
220.125
220.176
220.232
220.294
220.36
220.428
220.497
220.567
220.638
220.708
220.778
220.846
220.913
220.979
221.042
221.103
221.162
221.219
221.274
221.326
221.375
221.423
221.468
221.511
221.553
218.947
218.569
218.112
217.767
217.654
217.66
217.768
217.899
218.008
218.095
218.174
218.256
218.344
218.433
218.52
218.6
218.669
218.728
218.777
218.82
218.859
218.897
218.936
218.973
219.01
219.046
219.082
219.117
219.151
219.184
219.217
219.249
219.28
219.31
219.339
219.367
219.394
219.422
219.451
219.481
219.513
219.546
219.579
219.614
219.649
219.685
219.721
219.758
219.796
219.835
219.875
219.918
219.964
220.016
220.074
220.139
220.21
220.285
220.362
220.44
220.519
220.598
220.677
220.754
220.829
220.903
220.973
221.042
221.108
221.171
221.232
221.29
221.345
221.398
221.449
221.497
221.543
221.587
221.629
218.972
218.603
218.159
217.807
217.683
217.669
217.761
217.886
217.993
218.077
218.149
218.223
218.302
218.385
218.468
218.545
218.613
218.671
218.72
218.761
218.798
218.833
218.869
218.904
218.938
218.972
219.006
219.039
219.071
219.103
219.134
219.164
219.192
219.22
219.247
219.274
219.301
219.329
219.359
219.39
219.422
219.456
219.49
219.525
219.561
219.597
219.635
219.673
219.714
219.756
219.802
219.852
219.91
219.975
220.049
220.129
220.212
220.298
220.386
220.474
220.561
220.648
220.732
220.814
220.893
220.969
221.042
221.112
221.179
221.244
221.305
221.364
221.42
221.474
221.525
221.573
221.619
221.663
221.705
218.991
218.628
218.198
217.844
217.708
217.678
217.756
217.873
217.979
218.059
218.127
218.193
218.265
218.341
218.419
218.492
218.559
218.616
218.664
218.705
218.74
218.773
218.806
218.839
218.871
218.902
218.933
218.965
218.996
219.026
219.055
219.083
219.11
219.136
219.161
219.187
219.214
219.242
219.271
219.303
219.336
219.37
219.405
219.44
219.476
219.514
219.554
219.595
219.639
219.687
219.741
219.804
219.877
219.959
220.047
220.139
220.234
220.331
220.428
220.524
220.617
220.708
220.796
220.881
220.962
221.04
221.115
221.186
221.254
221.319
221.381
221.44
221.497
221.55
221.601
221.65
221.696
221.74
221.781
219.004
218.647
218.23
217.875
217.729
217.687
217.751
217.861
217.963
218.042
218.105
218.166
218.23
218.3
218.372
218.443
218.507
218.563
218.611
218.65
218.685
218.716
218.747
218.777
218.807
218.836
218.865
218.894
218.923
218.952
218.98
219.007
219.032
219.056
219.08
219.105
219.131
219.159
219.189
219.221
219.255
219.289
219.323
219.359
219.397
219.437
219.479
219.524
219.574
219.632
219.699
219.778
219.867
219.963
220.064
220.168
220.274
220.379
220.483
220.584
220.681
220.776
220.866
220.953
221.036
221.115
221.19
221.263
221.331
221.397
221.459
221.518
221.574
221.627
221.678
221.726
221.771
221.815
221.856
219.011
218.661
218.257
217.902
217.748
217.696
217.748
217.847
217.947
218.024
218.085
218.14
218.198
218.261
218.329
218.396
218.458
218.513
218.559
218.598
218.632
218.662
218.691
218.719
218.747
218.774
218.801
218.828
218.855
218.882
218.908
218.933
218.957
218.981
219.004
219.028
219.054
219.082
219.112
219.144
219.177
219.211
219.246
219.283
219.323
219.365
219.411
219.462
219.522
219.594
219.678
219.774
219.877
219.986
220.099
220.213
220.326
220.437
220.546
220.65
220.751
220.847
220.94
221.028
221.112
221.192
221.268
221.34
221.409
221.474
221.536
221.594
221.65
221.702
221.752
221.8
221.844
221.887
221.927
219.011
218.67
218.279
217.926
217.764
217.703
217.745
217.834
217.93
218.006
218.065
218.116
218.168
218.225
218.288
218.352
218.412
218.465
218.51
218.548
218.581
218.61
218.638
218.664
218.69
218.716
218.741
218.766
218.791
218.815
218.839
218.863
218.885
218.907
218.93
218.954
218.98
219.009
219.039
219.071
219.103
219.138
219.174
219.212
219.254
219.3
219.352
219.414
219.488
219.576
219.677
219.788
219.904
220.025
220.147
220.268
220.387
220.503
220.614
220.721
220.824
220.922
221.015
221.104
221.188
221.268
221.344
221.416
221.484
221.549
221.61
221.667
221.722
221.774
221.823
221.869
221.913
221.954
221.993
219.007
218.675
218.298
217.947
217.778
217.71
217.742
217.821
217.913
217.988
218.045
218.092
218.14
218.192
218.25
218.31
218.368
218.42
218.464
218.5
218.532
218.561
218.587
218.612
218.637
218.661
218.684
218.708
218.73
218.753
218.775
218.796
218.817
218.838
218.86
218.883
218.909
218.938
218.968
219
219.033
219.068
219.106
219.147
219.192
219.244
219.305
219.38
219.471
219.576
219.693
219.818
219.946
220.076
220.205
220.332
220.454
220.573
220.686
220.794
220.898
220.996
221.09
221.178
221.262
221.342
221.417
221.488
221.555
221.619
221.679
221.735
221.789
221.839
221.887
221.932
221.975
222.015
222.053
218.999
218.676
218.314
217.965
217.788
217.714
217.739
217.808
217.896
217.97
218.025
218.07
218.113
218.16
218.213
218.271
218.326
218.376
218.419
218.455
218.486
218.514
218.539
218.563
218.586
218.609
218.631
218.652
218.674
218.694
218.714
218.734
218.753
218.772
218.793
218.816
218.842
218.87
218.901
218.932
218.965
219.002
219.041
219.086
219.137
219.197
219.271
219.362
219.47
219.592
219.724
219.86
219.998
220.135
220.269
220.399
220.524
220.643
220.758
220.867
220.97
221.068
221.161
221.25
221.333
221.411
221.485
221.555
221.621
221.683
221.741
221.797
221.849
221.898
221.945
221.988
222.03
222.069
222.106
218.988
218.673
218.325
217.98
217.796
217.717
217.735
217.795
217.879
217.953
218.007
218.048
218.087
218.13
218.179
218.233
218.287
218.335
218.377
218.412
218.442
218.469
218.493
218.516
218.538
218.559
218.58
218.6
218.62
218.639
218.657
218.675
218.692
218.71
218.73
218.753
218.779
218.806
218.836
218.867
218.901
218.939
218.981
219.031
219.089
219.161
219.25
219.358
219.483
219.62
219.764
219.91
220.055
220.197
220.334
220.465
220.591
220.712
220.827
220.936
221.039
221.137
221.229
221.316
221.397
221.474
221.547
221.615
221.679
221.74
221.797
221.851
221.902
221.95
221.995
222.038
222.078
222.116
222.152
218.974
218.668
218.331
217.991
217.802
217.719
217.73
217.783
217.863
217.935
217.988
218.027
218.062
218.101
218.147
218.198
218.249
218.296
218.337
218.371
218.4
218.426
218.449
218.471
218.492
218.512
218.532
218.551
218.569
218.587
218.603
218.619
218.635
218.652
218.672
218.694
218.719
218.746
218.775
218.806
218.841
218.881
218.927
218.983
219.051
219.136
219.241
219.366
219.507
219.656
219.81
219.963
220.112
220.257
220.395
220.528
220.655
220.776
220.892
221
221.103
221.199
221.29
221.375
221.455
221.53
221.601
221.668
221.731
221.79
221.846
221.899
221.949
221.996
222.04
222.082
222.121
222.158
222.193
218.957
218.66
218.334
217.999
217.806
217.719
217.724
217.771
217.848
217.918
217.97
218.006
218.038
218.074
218.117
218.165
218.214
218.259
218.298
218.331
218.36
218.385
218.407
218.428
218.448
218.467
218.485
218.504
218.521
218.537
218.552
218.566
218.581
218.597
218.616
218.638
218.662
218.688
218.717
218.748
218.784
218.827
218.879
218.943
219.022
219.121
219.242
219.383
219.536
219.696
219.856
220.013
220.165
220.312
220.453
220.587
220.715
220.837
220.951
221.058
221.158
221.253
221.342
221.426
221.505
221.58
221.65
221.717
221.779
221.837
221.892
221.944
221.992
222.037
222.08
222.12
222.158
222.193
222.227
218.937
218.65
218.333
218.004
217.808
217.718
217.718
217.76
217.833
217.902
217.951
217.985
218.015
218.048
218.087
218.133
218.18
218.223
218.261
218.293
218.321
218.345
218.367
218.387
218.406
218.424
218.442
218.458
218.474
218.489
218.503
218.516
218.53
218.545
218.563
218.584
218.607
218.633
218.661
218.693
218.731
218.777
218.835
218.908
219.001
219.115
219.251
219.404
219.568
219.735
219.899
220.06
220.214
220.363
220.505
220.641
220.769
220.89
221.004
221.111
221.211
221.306
221.394
221.478
221.556
221.629
221.697
221.761
221.82
221.876
221.929
221.978
222.025
222.069
222.11
222.149
222.186
222.221
222.254
218.915
218.638
218.331
218.007
217.809
217.717
217.712
217.75
217.819
217.886
217.933
217.964
217.991
218.022
218.06
218.103
218.148
218.189
218.226
218.257
218.284
218.308
218.329
218.349
218.367
218.384
218.4
218.416
218.43
218.443
218.456
218.468
218.481
218.495
218.512
218.532
218.555
218.58
218.608
218.64
218.68
218.73
218.795
218.879
218.984
219.112
219.261
219.427
219.599
219.772
219.94
220.102
220.259
220.41
220.554
220.691
220.819
220.94
221.054
221.16
221.26
221.353
221.441
221.522
221.599
221.671
221.738
221.801
221.86
221.916
221.968
222.017
222.063
222.106
222.146
222.184
222.22
222.254
222.287
218.891
218.624
218.327
218.008
217.809
217.714
217.704
217.74
217.806
217.87
217.914
217.944
217.969
217.998
218.033
218.075
218.117
218.157
218.191
218.221
218.248
218.271
218.293
218.312
218.329
218.346
218.361
218.375
218.388
218.4
218.411
218.422
218.434
218.447
218.463
218.482
218.504
218.528
218.556
218.589
218.631
218.686
218.758
218.852
218.969
219.109
219.27
219.445
219.626
219.805
219.978
220.145
220.304
220.457
220.602
220.739
220.868
220.989
221.101
221.207
221.306
221.398
221.486
221.567
221.643
221.714
221.78
221.842
221.899
221.953
222.003
222.05
222.094
222.135
222.175
222.212
222.248
222.281
222.312
218.865
218.607
218.321
218.006
217.807
217.711
217.697
217.731
217.794
217.854
217.896
217.923
217.946
217.974
218.008
218.047
218.088
218.126
218.159
218.187
218.213
218.236
218.257
218.276
218.294
218.31
218.324
218.337
218.349
218.36
218.369
218.379
218.389
218.402
218.417
218.435
218.455
218.479
218.506
218.54
218.584
218.643
218.723
218.827
218.955
219.107
219.277
219.459
219.647
219.833
220.012
220.184
220.347
220.503
220.651
220.789
220.919
221.041
221.154
221.259
221.358
221.451
221.537
221.618
221.693
221.763
221.827
221.887
221.943
221.995
222.044
222.091
222.134
222.176
222.215
222.252
222.286
222.319
222.35
218.838
218.587
218.311
218.002
217.804
217.706
217.69
217.723
217.782
217.838
217.877
217.902
217.924
217.951
217.983
218.021
218.06
218.096
218.127
218.155
218.179
218.202
218.223
218.242
218.26
218.275
218.289
218.301
218.312
218.322
218.33
218.338
218.348
218.359
218.373
218.39
218.409
218.432
218.459
218.493
218.539
218.602
218.689
218.803
218.942
219.104
219.283
219.472
219.666
219.858
220.042
220.219
220.388
220.548
220.698
220.84
220.972
221.096
221.211
221.318
221.417
221.51
221.596
221.676
221.75
221.819
221.883
221.942
221.998
222.05
222.099
222.145
222.188
222.228
222.266
222.302
222.335
222.366
222.395
218.81
218.567
218.298
217.995
217.8
217.701
217.684
217.716
217.77
217.822
217.858
217.882
217.903
217.928
217.96
217.996
218.033
218.067
218.097
218.123
218.147
218.169
218.19
218.209
218.226
218.242
218.256
218.267
218.277
218.286
218.293
218.3
218.308
218.318
218.331
218.347
218.365
218.387
218.413
218.448
218.496
218.563
218.657
218.78
218.93
219.102
219.29
219.487
219.688
219.885
220.075
220.258
220.432
220.597
220.752
220.897
221.031
221.157
221.273
221.382
221.482
221.576
221.662
221.741
221.814
221.882
221.945
222.004
222.059
222.11
222.158
222.203
222.245
222.285
222.321
222.355
222.387
222.417
222.445
218.78
218.546
218.284
217.985
217.794
217.695
217.677
217.709
217.759
217.806
217.839
217.861
217.882
217.907
217.937
217.971
218.007
218.04
218.068
218.093
218.115
218.137
218.157
218.176
218.194
218.21
218.223
218.235
218.244
218.252
218.258
218.264
218.271
218.28
218.292
218.306
218.323
218.343
218.369
218.405
218.455
218.526
218.626