/*--------------------------------*- C++ -*----------------------------------*\
| =========                 |                                                 |
| \\      /  F ield         | OpenFOAM: The Open Source CFD Toolbox           |
|  \\    /   O peration     | Version:  2412                                  |
|   \\  /    A nd           | Website:  www.openfoam.com                      |
|    \\/     M anipulation  |                                                 |
\*---------------------------------------------------------------------------*/
FoamFile
{
    version     2.0;
    format      ascii;
    arch        "LSB;label=32;scalar=64";
    class       volScalarField;
    location    "0.033";
    object      p;
}
// * * * * * * * * * * * * * * * * * * * * * * * * * * * * * * * * * * * * * //

dimensions      [1 -1 -2 0 0 0 0];

internalField   nonuniform List<scalar> 
9816
(
2985.27
2984.9
2984.41
2983.81
2983.11
2982.34
2981.5
2980.59
2979.61
2978.57
2977.46
2976.27
2975.02
2973.69
2972.31
2970.86
2969.38
2967.84
2966.28
2964.69
2963.07
2961.45
2959.81
2958.15
2956.48
2954.78
2953.06
2951.32
2949.55
2947.74
2946
2944.17
2942.5
2940.8
2939.2
2937.62
2936.16
2934.76
2933.2
2931.78
2930.08
2929.16
2910.68
2909.01
2907.32
2905.63
2903.94
2902.27
2900.62
2898.99
2897.4
2895.85
2894.33
2892.84
2891.39
2889.98
2888.6
2887.26
2886.03
2884.79
2883.59
2882.44
2881.32
2880.26
2879.22
2878.25
2877.3
2876.43
2875.63
2874.89
2874.22
2873.59
2873.03
2872.43
2871.94
2871.16
2870.64
2869.93
2869.69
2868.55
2869.04
2869.19
2867.66
2866.57
2875.75
2874.4
2873.09
2871.81
2870.56
2869.36
2868.19
2867.07
2865.99
2864.95
2863.96
2863
2862.09
2861.22
2860.39
2859.59
2858.83
2858.1
2857.4
2856.74
2856.1
2855.5
2854.9
2854.36
2853.81
2853.32
2852.78
2852.33
2851.81
2851.38
2850.89
2850.57
2850.21
2849.89
2849.57
2849.64
2849.25
2848.43
2849.11
2849.52
2847.69
2846.54
2855.68
2854.68
2853.72
2852.78
2851.89
2851.02
2850.19
2849.38
2848.6
2847.85
2847.13
2846.43
2845.76
2845.12
2844.49
2843.89
2843.31
2842.75
2842.21
2841.7
2841.21
2840.74
2840.31
2839.88
2839.49
2839.11
2838.76
2838.43
2838.13
2837.84
2837.57
2837.31
2837.1
2836.83
2836.54
2836.44
2836.44
2835.65
2835.49
2836.47
2836.27
2834.71
2842.28
2841.48
2840.7
2839.95
2839.22
2838.51
2837.82
2837.17
2836.53
2835.92
2835.33
2834.77
2834.23
2833.72
2833.23
2832.76
2832.31
2831.89
2831.48
2831.1
2830.73
2830.38
2830.05
2829.73
2829.42
2829.13
2828.85
2828.58
2828.32
2828.08
2827.84
2827.62
2827.42
2827.23
2827.07
2826.89
2826.73
2826.46
2826.63
2826.66
2825.93
2825.77
2831.95
2831.31
2830.69
2830.1
2829.53
2829
2828.48
2827.99
2827.52
2827.08
2826.65
2826.25
2825.86
2825.49
2825.14
2824.8
2824.47
2824.16
2823.86
2823.57
2823.3
2823.03
2822.78
2822.54
2822.31
2822.09
2821.87
2821.66
2821.44
2821.23
2821.02
2820.82
2820.64
2820.46
2820.31
2820.16
2820.05
2819.91
2819.81
2819.71
2819.61
2819.42
2824.25
2823.78
2823.34
2822.9
2822.48
2822.07
2821.67
2821.29
2820.91
2820.55
2820.19
2819.84
2819.5
2819.17
2818.85
2818.54
2818.25
2817.96
2817.68
2817.41
2817.15
2816.9
2816.66
2816.44
2816.22
2816.01
2815.81
2815.63
2815.46
2815.31
2815.16
2815.02
2814.87
2814.75
2814.6
2814.5
2814.36
2814.28
2814.15
2814.09
2813.96
2813.91
2817.57
2817.17
2816.78
2816.4
2816.03
2815.68
2815.34
2815.01
2814.69
2814.39
2814.11
2813.84
2813.58
2813.34
2813.12
2812.91
2812.72
2812.53
2812.36
2812.19
2812.04
2811.9
2811.76
2811.63
2811.51
2811.39
2811.28
2811.18
2811.08
2810.98
2810.89
2810.81
2810.72
2810.64
2810.56
2810.49
2810.41
2810.34
2810.27
2810.21
2810.13
2810.08
2811.75
2811.51
2811.28
2811.06
2810.86
2810.66
2810.47
2810.29
2810.11
2809.95
2809.78
2809.62
2809.47
2809.32
2809.17
2809.03
2808.89
2808.75
2808.62
2808.49
2808.37
2808.25
2808.13
2808.02
2807.91
2807.81
2807.71
2807.61
2807.52
2807.44
2807.36
2807.28
2807.21
2807.15
2807.08
2807.02
2806.96
2806.91
2806.85
2806.81
2806.75
2806.71
2806.9
2806.75
2806.59
2806.44
2806.28
2806.13
2805.99
2805.84
2805.7
2805.57
2805.43
2805.3
2805.18
2805.06
2804.94
2804.82
2804.71
2804.6
2804.5
2804.4
2804.3
2804.21
2804.12
2804.03
2803.95
2803.87
2803.79
2803.72
2803.65
2803.58
2803.52
2803.46
2803.4
2803.35
2803.3
2803.25
2803.2
2803.15
2803.11
2803.07
2803.03
2802.99
2801.97
2801.88
2801.78
2801.68
2801.58
2801.48
2801.38
2801.29
2801.19
2801.09
2801
2800.91
2800.82
2800.73
2800.64
2800.56
2800.48
2800.41
2800.33
2800.27
2800.2
2800.14
2800.08
2800.02
2799.97
2799.92
2799.87
2799.83
2799.79
2799.75
2799.71
2799.67
2799.64
2799.61
2799.57
2799.54
2799.51
2799.48
2799.45
2799.43
2799.4
2799.37
2796.88
2796.87
2796.85
2796.83
2796.8
2796.78
2796.76
2796.73
2796.71
2796.68
2796.66
2796.64
2796.62
2796.59
2796.58
2796.55
2796.54
2796.51
2796.49
2796.47
2796.45
2796.43
2796.41
2796.39
2796.37
2796.35
2796.33
2796.3
2796.28
2796.26
2796.24
2796.22
2796.2
2796.18
2796.17
2796.15
2796.14
2796.12
2796.11
2796.1
2796.08
2796.07
2792.1
2792.19
2792.26
2792.33
2792.39
2792.44
2792.48
2792.52
2792.55
2792.58
2792.6
2792.61
2792.62
2792.63
2792.63
2792.63
2792.63
2792.62
2792.62
2792.61
2792.6
2792.59
2792.58
2792.58
2792.57
2792.56
2792.55
2792.54
2792.53
2792.52
2792.51
2792.51
2792.51
2792.5
2792.48
2792.47
2792.47
2792.47
2792.47
2792.46
2792.45
2792.44
2786.86
2786.99
2787.11
2787.21
2787.31
2787.4
2787.48
2787.56
2787.63
2787.69
2787.76
2787.81
2787.86
2787.91
2787.96
2788
2788.04
2788.08
2788.11
2788.15
2788.18
2788.21
2788.24
2788.26
2788.29
2788.32
2788.33
2788.35
2788.37
2788.41
2788.42
2788.41
2788.41
2788.44
2788.5
2788.52
2788.5
2788.46
2788.45
2788.5
2788.57
2788.6
2781.44
2781.65
2781.84
2782.02
2782.19
2782.35
2782.5
2782.64
2782.78
2782.9
2783.02
2783.13
2783.23
2783.32
2783.41
2783.5
2783.57
2783.64
2783.71
2783.77
2783.83
2783.88
2783.94
2783.99
2784.03
2784.05
2784.11
2784.18
2784.2
2784.18
2784.17
2784.27
2784.39
2784.4
2784.34
2784.28
2784.25
2784.31
2784.46
2784.58
2784.65
2784.6
2776.19
2776.44
2776.68
2776.9
2777.1
2777.3
2777.48
2777.65
2777.81
2777.96
2778.1
2778.23
2778.36
2778.47
2778.58
2778.68
2778.78
2778.87
2778.96
2779.04
2779.1
2779.17
2779.26
2779.32
2779.35
2779.38
2779.49
2779.6
2779.6
2779.54
2779.52
2779.63
2779.83
2779.95
2779.92
2779.82
2779.74
2779.72
2779.72
2779.79
2779.99
2780.16
2770.75
2771.03
2771.29
2771.53
2771.76
2771.98
2772.18
2772.37
2772.56
2772.73
2772.9
2773.05
2773.2
2773.34
2773.47
2773.59
2773.71
2773.83
2773.94
2774.02
2774.11
2774.24
2774.37
2774.41
2774.4
2774.47
2774.67
2774.84
2774.87
2774.8
2774.75
2774.78
2774.92
2775.15
2775.3
2775.35
2775.32
2775.25
2775.2
2775.19
2775.21
2775.27
2765.35
2765.68
2765.98
2766.27
2766.55
2766.81
2767.06
2767.3
2767.53
2767.75
2767.96
2768.15
2768.33
2768.52
2768.7
2768.84
2768.97
2769.15
2769.35
2769.44
2769.48
2769.6
2769.79
2769.99
2770.08
2770.07
2770.11
2770.18
2770.29
2770.43
2770.58
2770.69
2770.73
2770.74
2770.75
2770.75
2770.77
2770.81
2770.88
2770.97
2771.08
2771.19
2760.13
2760.5
2760.84
2761.17
2761.48
2761.78
2762.06
2762.33
2762.58
2762.82
2763.05
2763.28
2763.49
2763.67
2763.87
2764.08
2764.26
2764.39
2764.51
2764.68
2764.88
2765.06
2765.16
2765.2
2765.26
2765.37
2765.53
2765.73
2765.91
2765.98
2765.97
2765.97
2765.98
2766.03
2766.11
2766.22
2766.36
2766.51
2766.64
2766.73
2766.77
2766.78
2755.08
2755.48
2755.87
2756.23
2756.58
2756.91
2757.22
2757.52
2757.81
2758.07
2758.33
2758.59
2758.84
2759.03
2759.2
2759.45
2759.72
2759.9
2759.97
2760.08
2760.26
2760.49
2760.72
2760.88
2760.92
2760.96
2761.03
2761.15
2761.29
2761.44
2761.58
2761.71
2761.81
2761.88
2761.94
2761.98
2762.01
2762.04
2762.08
2762.12
2762.19
2762.26
2749.98
2750.41
2750.83
2751.22
2751.59
2751.95
2752.29
2752.62
2752.93
2753.23
2753.51
2753.76
2754.03
2754.29
2754.52
2754.72
2754.92
2755.13
2755.33
2755.52
2755.71
2755.89
2756.03
2756.13
2756.25
2756.38
2756.53
2756.71
2756.89
2757.05
2757.14
2757.18
2757.22
2757.25
2757.31
2757.38
2757.46
2757.55
2757.65
2757.77
2757.91
2758.03
2744.83
2745.3
2745.74
2746.17
2746.57
2746.96
2747.33
2747.68
2748.01
2748.34
2748.67
2748.94
2749.17
2749.44
2749.77
2750.06
2750.23
2750.35
2750.53
2750.77
2751.05
2751.31
2751.48
2751.57
2751.64
2751.74
2751.87
2752.02
2752.19
2752.38
2752.55
2752.71
2752.83
2752.9
2752.96
2753
2753.06
2753.11
2753.17
2753.23
2753.3
2753.38
2739.73
2740.23
2740.7
2741.16
2741.59
2742.01
2742.41
2742.79
2743.12
2743.46
2743.84
2744.19
2744.42
2744.62
2744.91
2745.28
2745.61
2745.82
2745.92
2746.06
2746.25
2746.5
2746.77
2747.01
2747.21
2747.35
2747.44
2747.52
2747.62
2747.73
2747.86
2748
2748.14
2748.28
2748.42
2748.55
2748.66
2748.77
2748.85
2748.93
2748.99
2749.05
2734.75
2735.28
2735.79
2736.28
2736.74
2737.18
2737.61
2738.03
2738.41
2738.74
2739.09
2739.49
2739.84
2740.09
2740.32
2740.61
2740.94
2741.23
2741.45
2741.63
2741.82
2742.04
2742.27
2742.5
2742.7
2742.86
2742.99
2743.11
2743.24
2743.37
2743.51
2743.65
2743.8
2743.94
2744.08
2744.21
2744.33
2744.43
2744.51
2744.59
2744.66
2744.72
2729.94
2730.5
2731.04
2731.56
2732.05
2732.51
2732.96
2733.4
2733.82
2734.19
2734.53
2734.9
2735.29
2735.63
2735.89
2736.14
2736.42
2736.71
2736.99
2737.25
2737.48
2737.69
2737.89
2738.08
2738.26
2738.44
2738.61
2738.78
2738.94
2739.1
2739.25
2739.4
2739.53
2739.66
2739.78
2739.89
2739.99
2740.09
2740.18
2740.26
2740.35
2740.43
2725.19
2725.77
2726.33
2726.86
2727.38
2727.87
2728.33
2728.76
2729.19
2729.61
2729.98
2730.34
2730.7
2731.05
2731.36
2731.65
2731.93
2732.22
2732.5
2732.76
2733
2733.22
2733.43
2733.62
2733.82
2734.01
2734.2
2734.38
2734.55
2734.71
2734.86
2735.01
2735.14
2735.26
2735.38
2735.49
2735.6
2735.7
2735.8
2735.9
2736
2736.09
2720.43
2721.02
2721.58
2722.11
2722.63
2723.13
2723.6
2724.03
2724.46
2724.89
2725.29
2725.66
2726
2726.34
2726.67
2726.99
2727.29
2727.58
2727.86
2728.11
2728.36
2728.59
2728.81
2729.03
2729.24
2729.44
2729.63
2729.81
2729.99
2730.15
2730.31
2730.46
2730.6
2730.73
2730.86
2730.98
2731.1
2731.21
2731.32
2731.42
2731.52
2731.62
2715.49
2716.1
2716.68
2717.24
2717.77
2718.29
2718.79
2719.25
2719.7
2720.14
2720.56
2720.96
2721.33
2721.69
2722.04
2722.37
2722.69
2722.99
2723.28
2723.56
2723.82
2724.07
2724.32
2724.55
2724.77
2724.98
2725.18
2725.37
2725.56
2725.73
2725.9
2726.06
2726.21
2726.35
2726.49
2726.62
2726.75
2726.87
2726.98
2727.09
2727.2
2727.31
2710.73
2711.37
2711.98
2712.56
2713.12
2713.66
2714.17
2714.66
2715.13
2715.58
2716
2716.41
2716.81
2717.18
2717.54
2717.88
2718.21
2718.52
2718.82
2719.11
2719.38
2719.65
2719.9
2720.14
2720.36
2720.58
2720.79
2720.99
2721.18
2721.36
2721.54
2721.7
2721.86
2722.01
2722.16
2722.3
2722.43
2722.55
2722.67
2722.79
2722.9
2723.02
2705.97
2706.62
2707.24
2707.84
2708.42
2708.97
2709.49
2710
2710.48
2710.95
2711.39
2711.82
2712.23
2712.62
2713
2713.36
2713.71
2714.04
2714.36
2714.67
2714.96
2715.24
2715.51
2715.77
2716.01
2716.25
2716.47
2716.69
2716.89
2717.09
2717.28
2717.46
2717.63
2717.8
2717.95
2718.1
2718.25
2718.38
2718.51
2718.64
2718.76
2718.89
2701.27
2701.94
2702.59
2703.21
2703.8
2704.38
2704.93
2705.46
2705.97
2706.46
2706.94
2707.39
2707.83
2708.25
2708.65
2709.04
2709.41
2709.77
2710.11
2710.44
2710.76
2711.06
2711.35
2711.63
2711.89
2712.15
2712.39
2712.63
2712.85
2713.06
2713.27
2713.46
2713.65
2713.83
2714
2714.16
2714.32
2714.46
2714.61
2714.74
2714.88
2715.01
2696.71
2697.39
2698.05
2698.69
2699.31
2699.9
2700.48
2701.03
2701.57
2702.09
2702.59
2703.08
2703.54
2703.99
2704.43
2704.84
2705.25
2705.63
2706
2706.36
2706.7
2707.03
2707.35
2707.65
2707.95
2708.22
2708.49
2708.75
2708.99
2709.23
2709.45
2709.67
2709.87
2710.07
2710.26
2710.44
2710.61
2710.77
2710.93
2711.08
2711.23
2711.38
2692.16
2692.87
2693.56
2694.23
2694.89
2695.53
2696.15
2696.76
2697.35
2697.91
2698.46
2698.99
2699.5
2699.99
2700.46
2700.92
2701.35
2701.77
2702.18
2702.56
2702.94
2703.29
2703.64
2703.96
2704.28
2704.58
2704.87
2705.15
2705.42
2705.67
2705.91
2706.15
2706.37
2706.58
2706.79
2706.98
2707.17
2707.35
2707.52
2707.69
2707.85
2708.01
2687.84
2688.59
2689.33
2690.05
2690.75
2691.44
2692.11
2692.75
2693.38
2693.98
2694.56
2695.12
2695.66
2696.18
2696.68
2697.16
2697.62
2698.06
2698.49
2698.89
2699.29
2699.66
2700.03
2700.37
2700.71
2701.03
2701.34
2701.63
2701.91
2702.19
2702.45
2702.7
2702.94
2703.17
2703.39
2703.6
2703.8
2704
2704.18
2704.36
2704.54
2704.72
2683.61
2684.41
2685.18
2685.94
2686.68
2687.4
2688.11
2688.78
2689.44
2690.07
2690.68
2691.27
2691.84
2692.39
2692.93
2693.44
2693.93
2694.41
2694.87
2695.31
2695.73
2696.14
2696.54
2696.92
2697.28
2697.63
2697.97
2698.29
2698.6
2698.9
2699.19
2699.46
2699.73
2699.98
2700.22
2700.46
2700.68
2700.89
2701.1
2701.3
2701.49
2701.69
2679.56
2680.38
2681.18
2681.97
2682.73
2683.47
2684.19
2684.89
2685.56
2686.22
2686.85
2687.46
2688.05
2688.63
2689.18
2689.72
2690.24
2690.74
2691.23
2691.7
2692.15
2692.59
2693.01
2693.42
2693.81
2694.18
2694.55
2694.89
2695.23
2695.55
2695.86
2696.16
2696.44
2696.71
2696.97
2697.23
2697.47
2697.7
2697.92
2698.13
2698.34
2698.55
2675.56
2676.4
2677.23
2678.03
2678.81
2679.57
2680.31
2681.02
2681.72
2682.41
2683.07
2683.72
2684.35
2684.96
2685.56
2686.13
2686.69
2687.23
2687.76
2688.27
2688.75
2689.23
2689.68
2690.12
2690.54
2690.95
2691.34
2691.72
2692.08
2692.43
2692.76
2693.08
2693.39
2693.68
2693.96
2694.23
2694.49
2694.74
2694.98
2695.2
2695.43
2695.65
2671.67
2672.54
2673.4
2674.23
2675.05
2675.83
2676.6
2677.35
2678.09
2678.81
2679.52
2680.21
2680.88
2681.53
2682.17
2682.78
2683.38
2683.95
2684.51
2685.04
2685.56
2686.06
2686.54
2687
2687.45
2687.87
2688.28
2688.68
2689.06
2689.42
2689.77
2690.1
2690.42
2690.72
2691.02
2691.3
2691.56
2691.82
2692.07
2692.3
2692.53
2692.77
2668.04
2668.95
2669.85
2670.72
2671.58
2672.41
2673.22
2674.01
2674.79
2675.55
2676.29
2677.02
2677.72
2678.4
2679.07
2679.71
2680.33
2680.92
2681.5
2682.06
2682.6
2683.12
2683.62
2684.1
2684.56
2685
2685.43
2685.84
2686.23
2686.61
2686.97
2687.32
2687.65
2687.96
2688.27
2688.55
2688.83
2689.1
2689.35
2689.59
2689.83
2690.07
2664.72
2665.68
2666.62
2667.55
2668.45
2669.33
2670.19
2671.03
2671.84
2672.64
2673.42
2674.18
2674.92
2675.63
2676.32
2676.99
2677.63
2678.26
2678.86
2679.44
2680.01
2680.55
2681.07
2681.57
2682.06
2682.52
2682.97
2683.4
2683.81
2684.21
2684.59
2684.95
2685.3
2685.63
2685.95
2686.25
2686.54
2686.82
2687.09
2687.35
2687.6
2687.85
2661.77
2662.79
2663.79
2664.77
2665.72
2666.66
2667.57
2668.45
2669.31
2670.15
2670.96
2671.74
2672.51
2673.25
2673.96
2674.65
2675.32
2675.97
2676.59
2677.19
2677.78
2678.34
2678.88
2679.4
2679.9
2680.39
2680.85
2681.3
2681.73
2682.14
2682.53
2682.91
2683.27
2683.62
2683.95
2684.27
2684.58
2684.87
2685.15
2685.42
2685.69
2685.95
2659.16
2660.23
2661.28
2662.31
2663.31
2664.29
2665.24
2666.16
2667.05
2667.92
2668.76
2669.57
2670.36
2671.13
2671.87
2672.58
2673.28
2673.95
2674.6
2675.23
2675.84
2676.43
2676.99
2677.54
2678.07
2678.57
2679.06
2679.53
2679.98
2680.42
2680.84
2681.24
2681.62
2681.99
2682.34
2682.68
2683.01
2683.32
2683.62
2683.91
2684.19
2684.47
2656.69
2657.81
2658.9
2659.97
2661.01
2662.03
2663.03
2664
2664.94
2665.86
2666.75
2667.62
2668.46
2669.28
2670.07
2670.84
2671.58
2672.3
2673
2673.67
2674.32
2674.95
2675.56
2676.14
2676.7
2677.24
2677.77
2678.27
2678.75
2679.21
2679.66
2680.08
2680.49
2680.88
2681.26
2681.62
2681.97
2682.3
2682.61
2682.92
2683.22
2683.52
2654.28
2655.43
2656.58
2657.7
2658.81
2659.9
2660.96
2662
2663.02
2664.01
2664.98
2665.92
2666.84
2667.72
2668.58
2669.42
2670.23
2671.01
2671.76
2672.49
2673.19
2673.86
2674.52
2675.14
2675.75
2676.33
2676.88
2677.42
2677.93
2678.42
2678.9
2679.35
2679.79
2680.2
2680.6
2680.98
2681.35
2681.7
2682.03
2682.36
2682.67
2682.99
2651.97
2653.2
2654.42
2655.62
2656.81
2657.97
2659.12
2660.25
2661.35
2662.42
2663.47
2664.49
2665.48
2666.43
2667.36
2668.26
2669.13
2669.97
2670.78
2671.57
2672.32
2673.04
2673.74
2674.41
2675.06
2675.67
2676.27
2676.84
2677.39
2677.91
2678.42
2678.9
2679.36
2679.8
2680.23
2680.63
2681.02
2681.39
2681.74
2682.09
2682.42
2682.76
2649.84
2651.16
2652.47
2653.77
2655.05
2656.3
2657.54
2658.75
2659.93
2661.08
2662.2
2663.29
2664.34
2665.37
2666.36
2667.32
2668.25
2669.14
2670.01
2670.84
2671.64
2672.42
2673.16
2673.87
2674.56
2675.22
2675.86
2676.47
2677.05
2677.61
2678.15
2678.66
2679.15
2679.63
2680.08
2680.51
2680.93
2681.32
2681.7
2682.07
2682.43
2682.79
2647.85
2649.28
2650.69
2652.08
2653.45
2654.79
2656.11
2657.4
2658.65
2659.88
2661.07
2662.23
2663.36
2664.45
2665.51
2666.54
2667.53
2668.49
2669.41
2670.3
2671.16
2671.99
2672.79
2673.56
2674.29
2675
2675.68
2676.33
2676.95
2677.55
2678.13
2678.68
2679.2
2679.7
2680.18
2680.64
2681.08
2681.5
2681.91
2682.29
2682.68
2683.06
2645.92
2647.44
2648.95
2650.44
2651.9
2653.33
2654.74
2656.11
2657.46
2658.77
2660.05
2661.3
2662.51
2663.68
2664.82
2665.92
2666.99
2668.01
2669
2669.96
2670.88
2671.76
2672.61
2673.43
2674.21
2674.96
2675.68
2676.37
2677.03
2677.67
2678.27
2678.85
2679.41
2679.94
2680.45
2680.94
2681.4
2681.85
2682.28
2682.69
2683.09
2683.49
2643.98
2645.61
2647.23
2648.82
2650.39
2651.93
2653.45
2654.93
2656.39
2657.8
2659.18
2660.52
2661.82
2663.07
2664.29
2665.46
2666.59
2667.68
2668.73
2669.73
2670.7
2671.64
2672.53
2673.39
2674.21
2675
2675.76
2676.49
2677.18
2677.85
2678.49
2679.1
2679.68
2680.24
2680.78
2681.29
2681.78
2682.24
2682.69
2683.12
2683.55
2683.97
2642.06
2643.81
2645.56
2647.28
2648.98
2650.65
2652.29
2653.89
2655.45
2656.96
2658.42
2659.84
2661.21
2662.54
2663.82
2665.05
2666.24
2667.38
2668.48
2669.54
2670.56
2671.54
2672.48
2673.38
2674.24
2675.07
2675.86
2676.62
2677.35
2678.05
2678.72
2679.35
2679.96
2680.55
2681.11
2681.64
2682.15
2682.64
2683.11
2683.56
2684
2684.44
2640.17
2642.07
2643.96
2645.83
2647.66
2649.45
2651.2
2652.89
2654.54
2656.13
2657.67
2659.16
2660.6
2661.99
2663.33
2664.63
2665.87
2667.07
2668.22
2669.33
2670.4
2671.42
2672.4
2673.35
2674.25
2675.12
2675.95
2676.75
2677.52
2678.25
2678.94
2679.61
2680.25
2680.86
2681.44
2682
2682.54
2683.05
2683.53
2684
2684.47
2684.92
2638.3
2640.35
2642.38
2644.37
2646.31
2648.2
2650.03
2651.82
2653.54
2655.21
2656.83
2658.39
2659.9
2661.35
2662.76
2664.11
2665.42
2666.68
2667.89
2669.05
2670.17
2671.24
2672.27
2673.26
2674.2
2675.11
2675.98
2676.82
2677.62
2678.38
2679.11
2679.81
2680.48
2681.12
2681.73
2682.31
2682.87
2683.4
2683.91
2684.4
2684.88
2685.36
2636.38
2638.56
2640.7
2642.79
2644.82
2646.8
2648.72
2650.58
2652.38
2654.13
2655.82
2657.46
2659.04
2660.56
2662.04
2663.46
2664.83
2666.15
2667.41
2668.63
2669.8
2670.92
2672
2673.04
2674.03
2674.98
2675.88
2676.75
2677.58
2678.38
2679.14
2679.87
2680.57
2681.24
2681.88
2682.48
2683.06
2683.62
2684.15
2684.66
2685.16
2685.66
2634.39
2636.67
2638.9
2641.07
2643.19
2645.25
2647.25
2649.19
2651.07
2652.9
2654.67
2656.38
2658.03
2659.63
2661.17
2662.66
2664.09
2665.47
2666.79
2668.06
2669.28
2670.46
2671.58
2672.66
2673.69
2674.68
2675.63
2676.54
2677.4
2678.23
2679.02
2679.78
2680.51
2681.2
2681.86
2682.49
2683.09
2683.67
2684.22
2684.75
2685.27
2685.79
2632.31
2634.69
2637.01
2639.27
2641.47
2643.61
2645.69
2647.71
2649.68
2651.58
2653.43
2655.21
2656.94
2658.61
2660.22
2661.77
2663.26
2664.69
2666.07
2667.4
2668.67
2669.89
2671.06
2672.18
2673.26
2674.29
2675.27
2676.21
2677.11
2677.97
2678.8
2679.58
2680.34
2681.05
2681.74
2682.39
2683.02
2683.62
2684.19
2684.74
2685.28
2685.81
2630.18
2632.64
2635.05
2637.4
2639.69
2641.92
2644.08
2646.19
2648.24
2650.23
2652.15
2654.01
2655.81
2657.55
2659.22
2660.84
2662.39
2663.88
2665.32
2666.7
2668.02
2669.29
2670.5
2671.67
2672.78
2673.85
2674.87
2675.85
2676.78
2677.68
2678.53
2679.35
2680.12
2680.87
2681.58
2682.26
2682.91
2683.52
2684.12
2684.69
2685.24
2685.8
2627.95
2630.51
2633.01
2635.45
2637.83
2640.15
2642.41
2644.6
2646.73
2648.8
2650.8
2652.74
2654.62
2656.42
2658.17
2659.84
2661.46
2663.01
2664.5
2665.93
2667.31
2668.62
2669.89
2671.09
2672.25
2673.36
2674.42
2675.43
2676.4
2677.33
2678.21
2679.06
2679.86
2680.63
2681.37
2682.07
2682.74
2683.38
2684
2684.59
2685.16
2685.74
2625.59
2628.24
2630.84
2633.37
2635.84
2638.25
2640.59
2642.87
2645.09
2647.24
2649.32
2651.34
2653.28
2655.16
2656.97
2658.71
2660.39
2662
2663.55
2665.03
2666.46
2667.82
2669.13
2670.39
2671.59
2672.73
2673.83
2674.88
2675.88
2676.84
2677.76
2678.63
2679.47
2680.27
2681.03
2681.76
2682.45
2683.11
2683.75
2684.36
2684.95
2685.55
2623.05
2625.79
2628.48
2631.1
2633.66
2636.16
2638.59
2640.96
2643.25
2645.48
2647.64
2649.73
2651.75
2653.7
2655.57
2657.38
2659.11
2660.78
2662.39
2663.93
2665.4
2666.81
2668.17
2669.47
2670.71
2671.89
2673.03
2674.12
2675.15
2676.15
2677.09
2678
2678.86
2679.69
2680.47
2681.23
2681.94
2682.63
2683.28
2683.91
2684.53
2685.14
2620.35
2623.18
2625.95
2628.66
2631.31
2633.89
2636.4
2638.85
2641.23
2643.53
2645.77
2647.93
2650.02
2652.03
2653.97
2655.84
2657.64
2659.37
2661.02
2662.61
2664.14
2665.6
2667
2668.34
2669.62
2670.85
2672.02
2673.15
2674.22
2675.24
2676.22
2677.15
2678.04
2678.9
2679.71
2680.48
2681.22
2681.93
2682.6
2683.25
2683.89
2684.52
2617.58
2620.49
2623.34
2626.13
2628.85
2631.51
2634.11
2636.63
2639.09
2641.47
2643.78
2646.01
2648.17
2650.25
2652.25
2654.18
2656.04
2657.82
2659.54
2661.18
2662.75
2664.26
2665.71
2667.09
2668.42
2669.68
2670.89
2672.05
2673.16
2674.21
2675.22
2676.19
2677.11
2677.98
2678.82
2679.62
2680.38
2681.11
2681.81
2682.48
2683.13
2683.78
2614.77
2617.76
2620.69
2623.55
2626.36
2629.1
2631.77
2634.37
2636.9
2639.36
2641.74
2644.04
2646.27
2648.41
2650.48
2652.48
2654.39
2656.23
2658
2659.69
2661.32
2662.88
2664.37
2665.8
2667.16
2668.47
2669.72
2670.91
2672.05
2673.14
2674.18
2675.17
2676.12
2677.03
2677.89
2678.72
2679.5
2680.25
2680.97
2681.66
2682.34
2683.01
2611.94
2615
2618
2620.94
2623.82
2626.64
2629.38
2632.06
2634.66
2637.19
2639.64
2642.01
2644.31
2646.52
2648.65
2650.7
2652.68
2654.57
2656.4
2658.14
2659.82
2661.43
2662.96
2664.44
2665.84
2667.19
2668.48
2669.71
2670.88
2672.01
2673.08
2674.1
2675.08
2676.01
2676.9
2677.75
2678.56
2679.33
2680.07
2680.78
2681.48
2682.17
2609.05
2612.18
2615.24
2618.25
2621.2
2624.08
2626.9
2629.64
2632.31
2634.91
2637.42
2639.86
2642.21
2644.49
2646.68
2648.79
2650.82
2652.77
2654.64
2656.44
2658.17
2659.82
2661.4
2662.91
2664.36
2665.75
2667.07
2668.34
2669.55
2670.7
2671.81
2672.86
2673.87
2674.83
2675.74
2676.62
2677.45
2678.24
2679
2679.74
2680.45
2681.16
2606.08
2609.26
2612.39
2615.46
2618.47
2621.41
2624.29
2627.09
2629.82
2632.48
2635.05
2637.54
2639.95
2642.28
2644.53
2646.69
2648.77
2650.77
2652.69
2654.53
2656.3
2658
2659.62
2661.17
2662.66
2664.08
2665.44
2666.74
2667.98
2669.16
2670.3
2671.38
2672.41
2673.39
2674.33
2675.23
2676.08
2676.9
2677.68
2678.43
2679.17
2679.9
2603.05
2606.29
2609.47
2612.6
2615.66
2618.66
2621.59
2624.45
2627.23
2629.94
2632.56
2635.11
2637.57
2639.94
2642.23
2644.44
2646.57
2648.61
2650.57
2652.46
2654.27
2656
2657.66
2659.24
2660.76
2662.22
2663.61
2664.94
2666.21
2667.42
2668.58
2669.68
2670.74
2671.75
2672.71
2673.63
2674.5
2675.34
2676.13
2676.9
2677.66
2678.4
2600.02
2603.31
2606.55
2609.73
2612.84
2615.89
2618.87
2621.78
2624.62
2627.37
2630.04
2632.63
2635.14
2637.56
2639.89
2642.15
2644.31
2646.4
2648.4
2650.32
2652.16
2653.93
2655.62
2657.24
2658.79
2660.28
2661.7
2663.05
2664.35
2665.59
2666.77
2667.9
2668.98
2670.01
2670.99
2671.93
2672.82
2673.67
2674.49
2675.28
2676.04
2676.81
2597.06
2600.41
2603.69
2606.92
2610.09
2613.19
2616.22
2619.17
2622.05
2624.85
2627.57
2630.2
2632.75
2635.21
2637.59
2639.88
2642.09
2644.21
2646.25
2648.21
2650.09
2651.89
2653.61
2655.27
2656.85
2658.36
2659.81
2661.19
2662.51
2663.78
2664.98
2666.14
2667.24
2668.29
2669.29
2670.24
2671.16
2672.03
2672.86
2673.66
2674.44
2675.22
2594.25
2597.63
2600.96
2604.24
2607.45
2610.59
2613.66
2616.65
2619.57
2622.41
2625.17
2627.84
2630.43
2632.93
2635.35
2637.68
2639.92
2642.08
2644.15
2646.15
2648.06
2649.89
2651.65
2653.33
2654.94
2656.49
2657.96
2659.37
2660.72
2662
2663.23
2664.41
2665.53
2666.6
2667.62
2668.6
2669.53
2670.41
2671.26
2672.08
2672.88
2673.67
2591.56
2594.98
2598.34
2601.65
2604.9
2608.08
2611.18
2614.21
2617.17
2620.04
2622.83
2625.54
2628.17
2630.7
2633.15
2635.52
2637.79
2639.98
2642.09
2644.11
2646.05
2647.92
2649.7
2651.41
2653.05
2654.62
2656.11
2657.55
2658.92
2660.23
2661.48
2662.67
2663.81
2664.9
2665.94
2666.93
2667.88
2668.78
2669.65
2670.48
2671.29
2672.1
2588.96
2592.39
2595.78
2599.12
2602.39
2605.6
2608.73
2611.79
2614.78
2617.68
2620.5
2623.24
2625.9
2628.46
2630.94
2633.33
2635.64
2637.85
2639.99
2642.04
2644
2645.89
2647.7
2649.44
2651.1
2652.69
2654.21
2655.66
2657.05
2658.38
2659.65
2660.86
2662.02
2663.13
2664.18
2665.19
2666.15
2667.07
2667.94
2668.79
2669.61
2670.43
2586.42
2589.86
2593.27
2596.62
2599.91
2603.14
2606.29
2609.37
2612.38
2615.31
2618.15
2620.91
2623.59
2626.18
2628.68
2631.09
2633.42
2635.66
2637.82
2639.89
2641.88
2643.79
2645.62
2647.37
2649.05
2650.66
2652.2
2653.67
2655.08
2656.43
2657.71
2658.94
2660.11
2661.23
2662.3
2663.32
2664.29
2665.22
2666.11
2666.97
2667.81
2668.64
2584.06
2587.51
2590.92
2594.28
2597.58
2600.81
2603.97
2607.07
2610.08
2613.02
2615.88
2618.66
2621.35
2623.95
2626.47
2628.9
2631.24
2633.5
2635.67
2637.76
2639.77
2641.69
2643.54
2645.31
2647
2648.63
2650.18
2651.67
2653.09
2654.45
2655.75
2656.99
2658.17
2659.3
2660.38
2661.41
2662.4
2663.34
2664.24
2665.1
2665.95
2666.79
2582.06
2585.5
2588.91
2592.27
2595.57
2598.81
2601.97
2605.07
2608.09
2611.04
2613.9
2616.68
2619.38
2621.99
2624.52
2626.96
2629.31
2631.58
2633.76
2635.86
2637.87
2639.81
2641.67
2643.45
2645.15
2646.79
2648.35
2649.85
2651.28
2652.64
2653.95
2655.2
2656.4
2657.54
2658.62
2659.66
2660.66
2661.6
2662.51
2663.38
2664.23
2665.08
2580.48
2583.93
2587.34
2590.7
2594
2597.24
2600.41
2603.5
2606.53
2609.48
2612.34
2615.13
2617.83
2620.45
2622.98
2625.42
2627.78
2630.05
2632.24
2634.34
2636.36
2638.31
2640.17
2641.95
2643.67
2645.31
2646.88
2648.38
2649.81
2651.19
2652.5
2653.76
2654.96
2656.1
2657.2
2658.24
2659.24
2660.19
2661.1
2661.98
2662.84
2663.69
2579.27
2582.72
2586.13
2589.49
2592.8
2596.04
2599.21
2602.31
2605.34
2608.29
2611.16
2613.95
2616.65
2619.27
2621.8
2624.25
2626.61
2628.89
2631.08
2633.19
2635.21
2637.16
2639.02
2640.81
2642.53
2644.17
2645.74
2647.25
2648.69
2650.07
2651.38
2652.64
2653.84
2654.99
2656.09
2657.14
2658.14
2659.09
2660.01
2660.89
2661.75
2662.6
2578.26
2581.72
2585.14
2588.51
2591.82
2595.07
2598.25
2601.35
2604.39
2607.34
2610.21
2613
2615.71
2618.33
2620.87
2623.32
2625.68
2627.96
2630.15
2632.26
2634.28
2636.23
2638.1
2639.89
2641.61
2643.25
2644.83
2646.33
2647.77
2649.15
2650.47
2651.73
2652.94
2654.09
2655.18
2656.23
2657.23
2658.19
2659.11
2659.99
2660.85
2661.71
2577.35
2580.82
2584.25
2587.63
2590.95
2594.2
2597.39
2600.5
2603.54
2606.5
2609.38
2612.17
2614.88
2617.51
2620.05
2622.5
2624.86
2627.14
2629.33
2631.44
2633.47
2635.42
2637.29
2639.08
2640.8
2642.44
2644.02
2645.52
2646.97
2648.34
2649.66
2650.92
2652.13
2653.28
2654.38
2655.43
2656.43
2657.38
2658.3
2659.18
2660.04
2660.9
2576.48
2579.96
2583.41
2586.8
2590.13
2593.39
2596.59
2599.71
2602.76
2605.72
2608.61
2611.41
2614.12
2616.75
2619.29
2621.75
2624.12
2626.4
2628.59
2630.71
2632.73
2634.68
2636.55
2638.34
2640.06
2641.71
2643.28
2644.79
2646.23
2647.61
2648.93
2650.19
2651.39
2652.55
2653.64
2654.69
2655.69
2656.65
2657.56
2658.45
2659.31
2660.17
2575.76
2579.26
2582.72
2586.13
2589.48
2592.76
2595.97
2599.1
2602.16
2605.13
2608.03
2610.83
2613.56
2616.19
2618.74
2621.2
2623.57
2625.86
2628.05
2630.17
2632.2
2634.15
2636.02
2637.81
2639.53
2641.18
2642.75
2644.26
2645.7
2647.08
2648.4
2649.66
2650.86
2652.01
2653.11
2654.16
2655.16
2656.12
2657.03
2657.91
2658.78
2659.63
2575.41
2578.94
2582.42
2585.84
2589.21
2592.5
2595.72
2598.87
2601.94
2604.92
2607.83
2610.64
2613.37
2616.01
2618.56
2621.03
2623.4
2625.69
2627.89
2630.01
2632.04
2633.99
2635.86
2637.65
2639.37
2641.01
2642.59
2644.1
2645.54
2646.92
2648.23
2649.49
2650.7
2651.84
2652.94
2653.99
2654.99
2655.94
2656.86
2657.74
2658.6
2659.45
2575.47
2579.01
2582.51
2585.95
2589.33
2592.63
2595.86
2599.02
2602.1
2605.09
2608
2610.82
2613.55
2616.19
2618.75
2621.21
2623.59
2625.87
2628.07
2630.19
2632.22
2634.16
2636.03
2637.83
2639.54
2641.18
2642.76
2644.26
2645.7
2647.08
2648.39
2649.65
2650.85
2652
2653.09
2654.14
2655.13
2656.09
2657
2657.87
2658.73
2659.59
2575.79
2579.35
2582.86
2586.31
2589.7
2593.02
2596.26
2599.42
2602.5
2605.5
2608.42
2611.24
2613.98
2616.62
2619.18
2621.64
2624.01
2626.3
2628.5
2630.61
2632.64
2634.59
2636.45
2638.24
2639.96
2641.6
2643.17
2644.67
2646.1
2647.48
2648.79
2650.04
2651.24
2652.38
2653.48
2654.52
2655.51
2656.46
2657.37
2658.25
2659.1
2659.96
2576.27
2579.84
2583.36
2586.83
2590.23
2593.56
2596.82
2599.99
2603.08
2606.09
2609
2611.83
2614.57
2617.22
2619.78
2622.24
2624.62
2626.91
2629.1
2631.22
2633.24
2635.19
2637.05
2638.84
2640.55
2642.19
2643.76
2645.26
2646.69
2648.06
2649.37
2650.62
2651.82
2652.96
2654.05
2655.09
2656.08
2657.03
2657.94
2658.81
2659.67
2660.52
2576.74
2580.33
2583.87
2587.35
2590.76
2594.1
2597.37
2600.55
2603.65
2606.66
2609.58
2612.42
2615.16
2617.81
2620.37
2622.84
2625.22
2627.5
2629.7
2631.82
2633.84
2635.79
2637.65
2639.44
2641.15
2642.79
2644.35
2645.85
2647.28
2648.65
2649.96
2651.21
2652.41
2653.55
2654.64
2655.67
2656.67
2657.61
2658.52
2659.39
2660.24
2661.09
2577.04
2580.64
2584.19
2587.69
2591.11
2594.47
2597.74
2600.93
2604.03
2607.05
2609.98
2612.82
2615.57
2618.22
2620.78
2623.25
2625.63
2627.92
2630.12
2632.23
2634.26
2636.2
2638.07
2639.85
2641.56
2643.2
2644.77
2646.27
2647.7
2649.07
2650.38
2651.62
2652.82
2653.96
2655.05
2656.08
2657.07
2658.02
2658.92
2659.8
2660.65
2661.5
2577.18
2580.8
2584.36
2587.86
2591.3
2594.65
2597.93
2601.13
2604.24
2607.26
2610.19
2613.03
2615.78
2618.44
2621
2623.47
2625.85
2628.14
2630.34
2632.45
2634.48
2636.43
2638.29
2640.08
2641.79
2643.42
2644.99
2646.49
2647.92
2649.29
2650.59
2651.84
2653.04
2654.18
2655.26
2656.3
2657.29
2658.24
2659.14
2660.01
2660.86
2661.71
2577.24
2580.86
2584.43
2587.94
2591.38
2594.74
2598.02
2601.22
2604.34
2607.36
2610.3
2613.14
2615.89
2618.54
2621.11
2623.58
2625.96
2628.25
2630.45
2632.56
2634.59
2636.53
2638.4
2640.18
2641.89
2643.53
2645.09
2646.59
2648.02
2649.39
2650.7
2651.95
2653.14
2654.28
2655.36
2656.4
2657.39
2658.33
2659.24
2660.11