/*--------------------------------*- C++ -*----------------------------------*\
| =========                 |                                                 |
| \\      /  F ield         | OpenFOAM: The Open Source CFD Toolbox           |
|  \\    /   O peration     | Version:  2412                                  |
|   \\  /    A nd           | Website:  www.openfoam.com                      |
|    \\/     M anipulation  |                                                 |
\*---------------------------------------------------------------------------*/
FoamFile
{
    version     2.0;
    format      ascii;
    arch        "LSB;label=32;scalar=64";
    class       volScalarField;
    location    "0.112";
    object      p;
}
// * * * * * * * * * * * * * * * * * * * * * * * * * * * * * * * * * * * * * //

dimensions      [1 -1 -2 0 0 0 0];

internalField   nonuniform List<scalar> 
78650
(
3894.53
2948
2874.35
2864.3
2852.7
2843.85
2835.82
2829.31
2824.24
2820.39
2817.18
2814.01
2810.28
2805.72
2800.62
2795.58
2791
2786.96
2783.38
2780.18
2777.35
2774.87
2772.73
2770.88
2769.29
2767.86
2766.48
2765.02
2763.41
2761.62
2759.65
2757.51
2755.21
2752.8
2750.31
2747.8
2745.32
2742.89
2740.56
2738.31
2736.17
2734.13
2732.22
2730.43
2728.76
2727.23
2725.84
2724.59
2723.48
2722.5
2721.64
2720.9
2720.27
2719.73
2719.28
2718.9
2718.58
2718.3
2718.05
2717.8
2717.55
2717.25
2716.9
2716.45
2715.89
2715.18
2714.29
2713.17
2711.76
2710.03
2707.92
2705.4
2702.39
2698.82
2694.61
2689.65
2683.88
2677.19
2669.5
2660.7
2650.67
2639.26
2626.32
2611.7
2595.23
2576.8
2556.23
2533.44
2508.23
2480.56
2450.15
2417.1
2381.03
2342.45
2300.31
2255.65
2207.46
2156.62
2103.15
2046.92
1988.12
1927.38
1867.58
1808.57
1747.95
1686.9
1628.38
1574.16
1524.26
1478.86
1433.45
1386.94
1341.5
1299.12
1262.4
1231.42
1205.85
1182.97
1163.4
1147.86
1114.68
3852.63
2941.76
2874.81
2865.19
2854.22
2845.48
2837.32
2830.44
2825.03
2820.97
2817.74
2814.75
2811.32
2807.03
2802.04
2796.94
2792.22
2788.07
2784.42
2781.19
2778.35
2775.87
2773.73
2771.9
2770.34
2768.97
2767.69
2766.37
2764.93
2763.33
2761.56
2759.62
2757.53
2755.3
2752.98
2750.63
2748.3
2746.02
2743.82
2741.72
2739.72
2737.83
2736.07
2734.44
2732.93
2731.57
2730.34
2729.26
2728.33
2727.54
2726.88
2726.34
2725.92
2725.61
2725.39
2725.27
2725.21
2725.21
2725.25
2725.32
2725.4
2725.46
2725.49
2725.46
2725.33
2725.09
2724.72
2724.15
2723.33
2722.24
2720.83
2719.04
2716.85
2714.16
2710.92
2707.01
2702.37
2696.91
2690.56
2683.2
2674.74
2665.04
2653.95
2641.32
2626.99
2610.85
2592.71
2572.45
2549.83
2524.77
2497.02
2466.64
2433.3
2397.26
2357.84
2316.07
2270.88
2223.15
2172.24
2117.63
2060.71
2002.84
1943.43
1882.67
1821.89
1759.88
1698.78
1640.58
1582.13
1528.53
1482.69
1439.07
1396.41
1354.93
1314.34
1276.49
1242.39
1210.7
1183.93
1162.07
1119.57
3810.06
2930.74
2875.91
2866.14
2855.53
2847
2838.78
2831.65
2825.88
2821.53
2818.21
2815.36
2812.24
2808.28
2803.47
2798.37
2793.54
2789.27
2785.53
2782.26
2779.4
2776.92
2774.79
2772.98
2771.44
2770.13
2768.94
2767.75
2766.46
2765.04
2763.47
2761.74
2759.84
2757.81
2755.68
2753.5
2751.32
2749.19
2747.13
2745.18
2743.33
2741.59
2739.98
2738.51
2737.17
2735.97
2734.92
2734.01
2733.26
2732.66
2732.2
2731.86
2731.65
2731.58
2731.6
2731.72
2731.93
2732.21
2732.55
2732.94
2733.35
2733.77
2734.18
2734.55
2734.86
2735.08
2735.2
2735.17
2734.94
2734.48
2733.75
2732.68
2731.27
2729.43
2727.11
2724.2
2720.64
2716.35
2711.25
2705.24
2698.24
2690.11
2680.72
2669.92
2657.56
2643.5
2627.57
2609.66
2589.58
2567.25
2542.42
2515.06
2484.82
2451.81
2415.53
2376.6
2334.03
2288.93
2240.34
2189.04
2134.87
2077.11
2017.75
1955.36
1894.3
1833.33
1771.35
1711.04
1652.06
1589.93
1531.77
1479.84
1432.05
1390.22
1350.7
1313.01
1278.23
1246.6
1218.5
1192.84
1144.34
3769.85
2922.32
2876.21
2867.21
2856.9
2848.4
2840.28
2832.95
2826.76
2822.06
2818.61
2815.85
2813.01
2809.43
2804.91
2799.88
2794.97
2790.57
2786.74
2783.4
2780.52
2778.04
2775.93
2774.13
2772.62
2771.35
2770.24
2769.17
2768.03
2766.79
2765.41
2763.88
2762.2
2760.38
2758.44
2756.44
2754.42
2752.44
2750.54
2748.73
2747.02
2745.44
2743.99
2742.67
2741.49
2740.46
2739.57
2738.85
2738.27
2737.86
2737.59
2737.46
2737.46
2737.61
2737.86
2738.22
2738.68
2739.24
2739.86
2740.55
2741.29
2742.05
2742.83
2743.59
2744.32
2744.99
2745.58
2746.06
2746.39
2746.52
2746.43
2746.07
2745.42
2744.38
2742.94
2740.99
2738.47
2735.31
2731.43
2726.75
2721.18
2714.61
2706.91
2697.95
2687.57
2675.64
2662.01
2646.57
2629.09
2609.45
2587.38
2562.79
2535.37
2505.17
2471.9
2436
2396.77
2354.91
2309.13
2260.39
2208.09
2152.73
2095.18
2034.91
1972.55
1909.14
1845.71
1780.29
1720.08
1658.87
1597.98
1541.03
1483.29
1430.4
1381.8
1337.5
1298.47
1263.63
1235.48
1213.01
1166.7
3726.23
2913.86
2875.64
2867.64
2858.13
2849.9
2841.8
2834.23
2827.66
2822.58
2818.94
2816.21
2813.6
2810.44
2806.3
2801.45
2796.52
2791.99
2788.04
2784.63
2781.72
2779.25
2777.15
2775.37
2773.88
2772.66
2771.62
2770.65
2769.66
2768.58
2767.38
2766.06
2764.6
2762.99
2761.26
2759.45
2757.61
2755.79
2754.04
2752.38
2750.83
2749.4
2748.1
2746.94
2745.93
2745.06
2744.35
2743.8
2743.41
2743.18
2743.1
2743.18
2743.41
2743.75
2744.23
2744.84
2745.56
2746.38
2747.29
2748.28
2749.33
2750.43
2751.56
2752.71
2753.85
2754.95
2756.01
2757
2757.86
2758.57
2759.09
2759.4
2759.47
2759.22
2758.63
2757.61
2756.08
2753.98
2751.24
2747.81
2743.58
2738.45
2732.32
2725.05
2716.5
2706.55
2695.03
2681.82
2666.72
2649.62
2630.3
2608.65
2584.41
2557.59
2527.86
2495.33
2459.27
2420.14
2377.15
2331.54
2282.33
2230.1
2174.43
2115.68
2053.44
1988.7
1925.15
1859.54
1793.06
1730.4
1667.24
1610.25
1553.32
1497.81
1444.79
1393.35
1345.75
1300.14
1260.07
1228.17
1167.21
3679.96
2909.28
2874.78
2867.55
2858.79
2850.89
2843.02
2835.41
2828.57
2823.12
2819.2
2816.42
2814.02
2811.26
2807.59
2803.04
2798.16
2793.54
2789.45
2785.96
2783.01
2780.54
2778.46
2776.7
2775.25
2774.06
2773.08
2772.21
2771.35
2770.43
2769.42
2768.3
2767.05
2765.66
2764.15
2762.54
2760.89
2759.24
2757.65
2756.15
2754.76
2753.48
2752.34
2751.34
2750.49
2749.79
2749.25
2748.87
2748.66
2748.62
2748.75
2749.03
2749.45
2750.01
2750.72
2751.57
2752.53
2753.61
2754.8
2756.08
2757.44
2758.87
2760.35
2761.86
2763.39
2764.92
2766.43
2767.89
2769.27
2770.54
2771.67
2772.61
2773.35
2773.84
2774.05
2773.91
2773.35
2772.31
2770.68
2768.45
2765.51
2761.81
2757.22
2751.63
2744.91
2736.92
2727.51
2716.57
2703.92
2689.45
2672.92
2654.16
2632.9
2609.07
2582.33
2552.76
2519.88
2484.06
2444.6
2402.15
2355.65
2306.12
2252.87
2196.25
2137.14
2074.16
2009.55
1944.27
1874.9
1808.58
1740.72
1673.22
1612.37
1551.89
1496.55
1446.51
1399.95
1356.56
1313.75
1275.5
1203.84
3629.87
2905.47
2873.25
2866.75
2858.85
2851.67
2844.22
2836.64
2829.57
2823.7
2819.43
2816.51
2814.24
2811.87
2808.72
2804.58
2799.85
2795.18
2790.97
2787.37
2784.37
2781.9
2779.85
2778.13
2776.71
2775.56
2774.64
2773.85
2773.11
2772.34
2771.5
2770.58
2769.54
2768.38
2767.09
2765.7
2764.24
2762.78
2761.36
2760.03
2758.79
2757.68
2756.7
2755.86
2755.17
2754.64
2754.27
2754.07
2754.05
2754.21
2754.52
2754.99
2755.62
2756.41
2757.34
2758.42
2759.63
2760.97
2762.43
2764
2765.66
2767.41
2769.23
2771.11
2773.02
2774.96
2776.9
2778.83
2780.71
2782.52
2784.22
2785.79
2787.2
2788.41
2789.37
2790.03
2790.36
2790.33
2789.77
2788.7
2786.97
2784.58
2781.41
2777.37
2772.32
2766.15
2758.69
2749.86
2739.48
2727.43
2713.48
2697.49
2679.22
2658.61
2635.33
2609.31
2580.05
2547.78
2511.9
2472.87
2429.85
2383.63
2333.37
2279.85
2222.65
2162.29
2097.69
2031.93
1963.03
1892.44
1825.13
1753.16
1685.76
1617.72
1551.58
1490.65
1433.26
1383.92
1342.27
1306.26
1229.31
3577.34
2903.06
2871.71
2865.57
2858.55
2851.91
2845.06
2837.78
2830.58
2824.29
2819.65
2816.52
2814.28
2812.24
2809.62
2805.99
2801.55
2796.91
2792.59
2788.87
2785.82
2783.34
2781.32
2779.65
2778.27
2777.17
2776.3
2775.59
2774.95
2774.32
2773.65
2772.91
2772.08
2771.15
2770.09
2768.92
2767.67
2766.41
2765.17
2764.01
2762.94
2761.99
2761.17
2760.5
2759.98
2759.61
2759.42
2759.39
2759.56
2759.89
2760.39
2761.07
2761.91
2762.91
2764.06
2765.37
2766.82
2768.42
2770.14
2771.99
2773.94
2776
2778.15
2780.37
2782.66
2784.99
2787.35
2789.72
2792.09
2794.41
2796.67
2798.83
2800.86
2802.75
2804.46
2805.94
2807.12
2807.95
2808.41
2808.47
2807.95
2806.87
2805.08
2802.54
2799.14
2794.75
2789.24
2782.5
2774.36
2764.71
2753.35
2740.15
2724.84
2707.27
2687.1
2664.28
2638.49
2609.88
2577.84
2542.48
2503.1
2460.4
2413.66
2363.5
2309.11
2251.11
2189.91
2123.78
2056.9
1985.73
1916.05
1844.22
1773.53
1706.45
1638.96
1575.92
1511.05
1449.27
1394.75
1349.13
1258.63
3521.94
2899.86
2869.64
2863.79
2857.57
2851.65
2845.45
2838.72
2831.61
2825.04
2819.95
2816.5
2814.21
2812.34
2810.21
2807.18
2803.17
2798.66
2794.28
2790.44
2787.3
2784.81
2782.83
2781.22
2779.91
2778.86
2778.05
2777.41
2776.88
2776.37
2775.85
2775.28
2774.66
2773.95
2773.11
2772.17
2771.15
2770.09
2769.05
2768.06
2767.17
2766.39
2765.74
2765.23
2764.88
2764.68
2764.66
2764.82
2765.15
2765.67
2766.37
2767.24
2768.29
2769.5
2770.88
2772.41
2774.1
2775.95
2777.93
2780.05
2782.3
2784.66
2787.13
2789.7
2792.34
2795.05
2797.82
2800.63
2803.45
2806.28
2809.07
2811.79
2814.44
2816.98
2819.39
2821.62
2823.63
2825.37
2826.76
2827.77
2828.37
2828.51
2828.03
2826.92
2825.03
2822.28
2818.54
2813.71
2807.65
2800.26
2791.34
2780.75
2768.26
2753.72
2736.87
2717.62
2695.61
2670.77
2642.5
2610.93
2575.54
2536.73
2493.77
2447.1
2395.93
2340.86
2281.54
2218.73
2152.46
2082.72
2007.3
1932.59
1855.81
1782.7
1708.35
1639.18
1573.12
1512.53
1455.47
1406.14
1311.83
3465.16
2898.22
2866.75
2860.48
2855.02
2850.19
2845.02
2839.25
2832.72
2826.04
2820.43
2816.53
2814.03
2812.27
2810.5
2808.08
2804.64
2800.4
2796.02
2792.06
2788.82
2786.3
2784.36
2782.83
2781.6
2780.62
2779.88
2779.33
2778.88
2778.49
2778.11
2777.71
2777.27
2776.77
2776.16
2775.45
2774.66
2773.82
2772.97
2772.18
2771.47
2770.86
2770.38
2770.04
2769.86
2769.83
2769.99
2770.31
2770.82
2771.52
2772.41
2773.48
2774.73
2776.16
2777.75
2779.51
2781.43
2783.52
2785.76
2788.14
2790.67
2793.33
2796.1
2798.99
2801.99
2805.06
2808.22
2811.44
2814.7
2818
2821.3
2824.57
2827.8
2830.96
2834.03
2836.98
2839.76
2842.33
2844.65
2846.67
2848.31
2849.54
2850.3
2850.56
2850.16
2849.04
2847.06
2844.11
2840.08
2834.86
2828.3
2820.26
2810.51
2798.9
2785.15
2769.12
2750.49
2729.19
2704.74
2677.2
2646.01
2611.3
2572.38
2529.52
2482.05
2430.58
2374.58
2314.9
2251.09
2183.11
2110.42
2036.02
1959.37
1882.01
1803.67
1725.71
1650.19
1579.85
1514.39
1456.81
1342.31
3407.24
2893.49
2864.66
2858.26
2853.24
2849.06
2844.64
2839.64
2833.87
2827.29
2821.21
2816.7
2813.87
2812.08
2810.53
2808.62
2805.81
2802.02
2797.75
2793.7
2790.34
2787.77
2785.87
2784.42
2783.29
2782.42
2781.77
2781.31
2780.96
2780.67
2780.41
2780.16
2779.9
2779.6
2779.21
2778.73
2778.17
2777.55
2776.92
2776.32
2775.8
2775.38
2775.07
2774.9
2774.89
2775.05
2775.37
2775.86
2776.55
2777.43
2778.51
2779.77
2781.22
2782.85
2784.66
2786.64
2788.79
2791.12
2793.6
2796.25
2799.05
2801.99
2805.07
2808.28
2811.61
2815.04
2818.57
2822.19
2825.88
2829.63
2833.41
2837.2
2840.99
2844.74
2848.44
2852.07
2855.59
2858.96
2862.13
2865.05
2867.7
2870.02
2871.93
2873.37
2874.29
2874.65
2874.3
2873.1
2870.97
2867.76
2863.4
2857.74
2850.59
2841.79
2831.1
2818.39
2803.33
2785.8
2765.32
2741.9
2714.94
2684.48
2649.94
2611.53
2568.66
2521.7
2469.96
2413.99
2352.78
2287.11
2217.58
2142.81
2064.99
1982.92
1903.98
1821.26
1743.05
1667.24
1596.63
1536.67
1421.85
3347.73
2890.35
2862.19
2854.91
2850.09
2846.51
2843.08
2839.18
2834.23
2828.38
2822.26
2817.18
2813.88
2811.82
2810.35
2808.8
2806.62
2803.4
2799.39
2795.33
2791.86
2789.22
2787.34
2785.98
2784.97
2784.22
2783.69
2783.34
2783.1
2782.91
2782.77
2782.65
2782.55
2782.43
2782.26
2782
2781.67
2781.27
2780.86
2780.47
2780.14
2779.91
2779.79
2779.79
2779.96
2780.28
2780.77
2781.44
2782.3
2783.36
2784.62
2786.07
2787.72
2789.55
2791.57
2793.76
2796.14
2798.7
2801.42
2804.32
2807.38
2810.6
2813.97
2817.48
2821.12
2824.9
2828.79
2832.78
2836.87
2841.05
2845.29
2849.57
2853.88
2858.19
2862.49
2866.76
2870.97
2875.08
2879.06
2882.86
2886.45
2889.77
2892.79
2895.45
2897.67
2899.37
2900.49
2900.97
2900.72
2899.49
2897.27
2893.87
2889.18
2883.03
2875.22
2865.57
2853.78
2839.72
2823.02
2803.63
2780.98
2755.01
2725.18
2691.58
2653.62
2611.28
2563.75
2511.49
2453.83
2391.73
2324.45
2252.09
2175.42
2092.92
2011.88
1922.76
1834.28
1749.08
1665.88
1594.23
1455
3288.94
2885.41
2860.88
2851.96
2846.58
2843.24
2840.73
2837.97
2834.08
2829.01
2823.36
2818.01
2814.09
2811.62
2810.04
2808.71
2807.03
2804.43
2800.85
2796.88
2793.32
2790.61
2788.73
2787.46
2786.58
2785.97
2785.58
2785.37
2785.26
2785.18
2785.16
2785.17
2785.2
2785.26
2785.28
2785.24
2785.13
2784.96
2784.77
2784.59
2784.47
2784.42
2784.49
2784.69
2785.01
2785.51
2786.17
2787.01
2788.04
2789.28
2790.72
2792.36
2794.2
2796.23
2798.45
2800.85
2803.45
2806.23
2809.19
2812.33
2815.65
2819.13
2822.78
2826.58
2830.54
2834.64
2838.87
2843.23
2847.7
2852.29
2856.97
2861.72
2866.52
2871.36
2876.23
2881.1
2885.96
2890.77
2895.5
2900.11
2904.57
2908.84
2912.88
2916.62
2920.03
2923.04
2925.58
2927.51
2928.81
2929.39
2929.21
2927.95
2925.63
2921.96
2916.91
2910.24
2901.72
2891.19
2878.29
2862.88
2844.43
2822.88
2797.69
2768.83
2735.65
2698
2655.22
2607.59
2554.62
2497.02
2433.55
2364.59
2290.56
2212.68
2129.21
2044.73
1952.48
1869.72
1785.1
1708.74
1559.68
3231.04
2880.96
2858.97
2849.06
2843.07
2839.87
2837.95
2836.14
2833.38
2829.13
2823.91
2818.79
2814.46
2811.52
2809.66
2808.41
2807.09
2805.13
2802.08
2798.33
2794.74
2791.95
2790.05
2788.85
2788.1
2787.63
2787.42
2787.39
2787.43
2787.47
2787.57
2787.69
2787.86
2788.07
2788.27
2788.43
2788.54
2788.59
2788.62
2788.66
2788.74
2788.89
2789.15
2789.53
2790.04
2790.7
2791.54
2792.55
2793.76
2795.16
2796.78
2798.6
2800.62
2802.85
2805.26
2807.88
2810.68
2813.68
2816.87
2820.24
2823.8
2827.54
2831.45
2835.54
2839.78
2844.19
2848.75
2853.45
2858.28
2863.25
2868.33
2873.52
2878.79
2884.13
2889.52
2894.96
2900.42
2905.88
2911.32
2916.69
2921.97
2927.12
2932.11
2936.89
2941.42
2945.64
2949.48
2952.9
2955.78
2958.01
2959.54
2960.3
2960.28
2958.96
2956.53
2952.57
2947.06
2939.74
2930.34
2918.7
2904.36
2887.24
2866.75
2842.76
2814.62
2782.19
2744.92
2702.83
2655.3
2602.49
2543.24
2478.35
2406.74
2329.4
2247.09
2160.52
2064.14
1967.48
1872.79
1791.54
1638.41
3174.16
2876.44
2857.32
2847.1
2840.14
2836.44
2834.35
2832.94
2831.15
2828.07
2823.7
2818.95
2814.73
2811.55
2809.44
2808.13
2807.04
2805.57
2803.09
2799.64
2796.07
2793.2
2791.29
2790.15
2789.52
2789.2
2789.15
2789.35
2789.55
2789.74
2789.97
2790.21
2790.5
2790.84
2791.22
2791.57
2791.88
2792.15
2792.39
2792.64
2792.93
2793.29
2793.74
2794.3
2794.99
2795.83
2796.84
2798.02
2799.4
2800.98
2802.77
2804.76
2806.97
2809.38
2811.99
2814.8
2817.81
2821.01
2824.42
2828.02
2831.81
2835.8
2839.97
2844.32
2848.84
2853.54
2858.41
2863.44
2868.62
2873.95
2879.42
2885.02
2890.72
2896.53
2902.42
2908.39
2914.42
2920.49
2926.57
2932.65
2938.68
2944.65
2950.51
2956.24
2961.79
2967.12
2972.16
2976.87
2981.16
2984.97
2988.22
2990.75
2992.54
2993.47
2993.55
2992.23
2989.65
2985.42
2979.43
2971.45
2961.1
2948.23
2932.26
2913.09
2890.11
2863.21
2831.85
2795.81
2754.3
2707.11
2653.51
2594.33
2528.22
2455.95
2376.75
2291.61
2206.32
2105.14
2003.23
1910.19
1734.86
3119.22
2870.71
2855.24
2845.27
2837.4
2832.71
2830.07
2828.69
2827.52
2825.67
2822.63
2818.71
2814.82
2811.63
2809.46
2808.07
2807.06
2805.92
2803.92
2800.8
2797.31
2794.38
2792.44
2791.37
2790.85
2790.67
2790.8
2791.24
2791.61
2791.97
2792.34
2792.71
2793.11
2793.59
2794.11
2794.65
2795.15
2795.61
2796.07
2796.53
2797.02
2797.58
2798.23
2798.98
2799.86
2800.88
2802.05
2803.4
2804.95
2806.7
2808.65
2810.83
2813.21
2815.8
2818.6
2821.6
2824.8
2828.21
2831.82
2835.64
2839.66
2843.87
2848.28
2852.89
2857.68
2862.65
2867.81
2873.14
2878.64
2884.31
2890.14
2896.12
2902.23
2908.47
2914.82
2921.28
2927.83
2934.45
2941.14
2947.86
2954.59
2961.31
2967.99
2974.59
2981.09
2987.44
2993.6
2999.52
3005.14
3010.38
3015.18
3019.46
3023.14
3026.04
3028.12
3029.25
3029.42
3028.06
3025.26
3020.64
3014.01
3005.17
2993.63
2979.27
2961.46
2940.03
2914.32
2883.86
2847.87
2806.22
2758.36
2704.4
2642.84
2574.63
2498.34
2415.59
2325.99
2231.85
2129.02
2040.06
1876.73
3066.46
2862.2
2852.84
2843.54
2835.18
2829.58
2826.32
2824.58
2823.42
2822.18
2820.23
2817.39
2814.21
2811.37
2809.3
2807.95
2807.07
2806.18
2804.62
2801.88
2798.49
2795.49
2793.5
2792.49
2792.07
2792.02
2792.37
2793.01
2793.58
2794.12
2794.66
2795.16
2795.68
2796.28
2796.94
2797.64
2798.32
2798.98
2799.64
2800.3
2801
2801.75
2802.6
2803.54
2804.61
2805.8
2807.15
2808.67
2810.38
2812.29
2814.42
2816.76
2819.31
2822.08
2825.06
2828.24
2831.63
2835.23
2839.04
2843.07
2847.3
2851.74
2856.38
2861.22
2866.26
2871.5
2876.93
2882.55
2888.35
2894.34
2900.5
2906.84
2913.33
2919.97
2926.75
2933.66
2940.7
2947.85
2955.09
2962.4
2969.78
2977.18
2984.6
2992
2999.36
3006.64
3013.81
3020.82
3027.62
3034.16
3040.36
3046.18
3051.51
3056.3
3060.43
3063.71
3066.11
3067.47
3067.74
3066.35
3063.33
3058.29
3050.92
3041.04
3028.04
3011.75
2991.41
2966.67
2936.99
2902.13
2861.26
2814
2759.3
2697.69
2627.63
2549.91
2462.83
2366.93
2264.62
2156.89
1978.39
3019.19
2849.96
2848.84
2842.28
2834.57
2828.3
2823.99
2821.32
2819.61
2818.41
2817.15
2815.34
2813.05
2810.73
2808.94
2807.73
2806.99
2806.37
2805.3
2803.03
2799.78
2796.66
2794.54
2793.54
2793.23
2793.29
2793.87
2794.71
2795.47
2796.21
2796.92
2797.57
2798.2
2798.91
2799.71
2800.55
2801.41
2802.25
2803.09
2803.95
2804.84
2805.79
2806.83
2807.96
2809.21
2810.59
2812.11
2813.8
2815.67
2817.74
2820.03
2822.54
2825.27
2828.2
2831.35
2834.71
2838.29
2842.07
2846.07
2850.29
2854.73
2859.37
2864.23
2869.3
2874.58
2880.06
2885.74
2891.63
2897.71
2903.99
2910.47
2917.13
2923.97
2930.98
2938.16
2945.49
2952.96
2960.58
2968.32
2976.18
2984.14
2992.17
3000.26
3008.38
3016.52
3024.65
3032.73
3040.74
3048.62
3056.34
3063.84
3071.05
3077.92
3084.38
3090.32
3095.67
3100.3
3104
3106.73
3108.29
3108.63
3107.14
3103.74
3098.09
3089.77
3078.6
3063.88
3045.4
3022.49
2994.59
2960.76
2920.66
2873.52
2819.33
2756.43
2685.01
2603.55
2515.41
2416.84
2316.24
2145.96
2981.69
2837.57
2841.99
2839.62
2833.57
2827.34
2822.6
2819.15
2816.66
2814.93
2813.66
2812.42
2810.99
2809.42
2808.15
2807.26
2806.81
2806.4
2805.68
2804.04
2801.15
2797.95
2795.65
2794.59
2794.33
2794.49
2795.28
2796.33
2797.28
2798.21
2799.09
2799.89
2800.66
2801.47
2802.39
2803.38
2804.39
2805.4
2806.42
2807.46
2808.54
2809.68
2810.91
2812.23
2813.66
2815.22
2816.91
2818.77
2820.8
2823.04
2825.49
2828.16
2831.05
2834.15
2837.47
2841
2844.74
2848.71
2852.89
2857.29
2861.92
2866.76
2871.83
2877.11
2882.6
2888.31
2894.24
2900.37
2906.72
2913.27
2920.03
2927
2934.16
2941.51
2949.05
2956.76
2964.65
2972.7
2980.9
2989.25
2997.74
3006.34
3015.04
3023.82
3032.67
3041.55
3050.46
3059.35
3068.2
3076.97
3085.61
3094.08
3102.31
3110.26
3117.84
3124.98
3131.57
3137.51
3142.69
3146.85
3149.92
3151.7
3152.1
3150.45
3146.61
3140.22
3130.74
3117.91
3100.92
3079.21
3051.99
3018.76
2978.44
2930.65
2874.25
2809.1
2733.5
2648.86
2550.07
2447.7
2288.03
2953.62
2824.58
2831.69
2833.91
2831.82
2826.63
2821.68
2817.55
2814.3
2811.84
2810.15
2809.04
2808.18
2807.32
2806.61
2806.22
2806.13
2806.05
2805.65
2804.64
2802.39
2799.35
2796.91
2795.73
2795.46
2795.69
2796.66
2797.91
2799.04
2800.14
2801.2
2802.15
2803.04
2803.97
2804.99
2806.11
2807.27
2808.44
2809.63
2810.84
2812.1
2813.42
2814.83
2816.33
2817.95
2819.68
2821.55
2823.57
2825.77
2828.16
2830.77
2833.6
2836.65
2839.91
2843.39
2847.09
2851
2855.13
2859.48
2864.06
2868.87
2873.9
2879.16
2884.64
2890.34
2896.26
2902.41
2908.77
2915.36
2922.17
2929.19
2936.44
2943.89
2951.55
2959.42
2967.48
2975.73
2984.17
2992.79
3001.59
3010.54
3019.65
3028.89
3038.26
3047.74
3057.31
3066.94
3076.63
3086.34
3096.05
3105.71
3115.29
3124.74
3134.02
3143.07
3151.81
3160.16
3168.05
3175.36
3181.96
3187.72
3192.36
3195.78
3197.74
3198.14
3196.19
3191.71
3184.22
3173.1
3157.89
3137.85
3112.24
3080.03
3040.78
2993.25
2936.49
2869.07
2789.84
2698.23
2594.53
2448.11
2933.36
2810.54
2819.49
2826.4
2827.82
2825.49
2820.76
2816.19
2812.31
2809.13
2806.8
2805.41
2804.72
2804.4
2804.26
2804.5
2804.99
2805.36
2805.36
2804.75
2803.23
2800.68
2798.27
2796.97
2796.65
2796.93
2798.04
2799.45
2800.74
2802.01
2803.22
2804.32
2805.34
2806.37
2807.51
2808.75
2810.04
2811.36
2812.7
2814.08
2815.51
2817.01
2818.59
2820.27
2822.07
2823.98
2826.01
2828.2
2830.56
2833.11
2835.87
2838.85
2842.06
2845.48
2849.12
2852.97
2857.04
2861.33
2865.85
2870.6
2875.57
2880.78
2886.21
2891.88
2897.77
2903.89
2910.24
2916.82
2923.63
2930.67
2937.94
2945.43
2953.16
2961.1
2969.26
2977.64
2986.22
2995.02
3004.01
3013.21
3022.59
3032.15
3041.88
3051.78
3061.81
3071.99
3082.28
3092.67
3103.14
3113.67
3124.23
3134.79
3145.31
3155.75
3166.08
3176.23
3186.14
3195.74
3204.93
3213.63
3221.71
3229.01
3235.42
3240.54
3244.31
3246.43
3246.8
3244.38
3239.1
3230.18
3217.17
3199.09
3175.06
3144.3
3105.48
3057.91
2999.79
2928.76
2845.41
2744.25
2608.42
2919.56
2797.26
2805.51
2816.52
2822.25
2822.87
2819.71
2815.16
2810.74
2806.92
2803.92
2801.92
2801.03
2800.92
2801.21
2802
2803.15
2804.1
2804.58
2804.48
2803.51
2801.67
2799.58
2798.27
2797.93
2798.24
2799.46
2801
2802.42
2803.83
2805.2
2806.43
2807.56
2808.71
2809.94
2811.29
2812.71
2814.17
2815.66
2817.19
2818.78
2820.45
2822.2
2824.05
2826.01
2828.09
2830.3
2832.65
2835.16
2837.87
2840.78
2843.92
2847.27
2850.85
2854.64
2858.64
2862.86
2867.31
2871.98
2876.89
2882.02
2887.39
2893
2898.84
2904.91
2911.21
2917.75
2924.53
2931.54
2938.79
2946.28
2954.01
2961.98
2970.17
2978.6
2987.26
2996.15
3005.26
3014.59
3024.14
3033.9
3043.86
3054.03
3064.38
3074.91
3085.61
3096.48
3107.48
3118.62
3129.87
3141.21
3152.62
3164.07
3175.53
3186.98
3198.35
3209.61
3220.7
3231.54
3242.08
3252.19
3261.79
3270.71
3278.78
3285.86
3291.48
3295.61
3297.84
3298.11
3294.92
3288.48
3277.31
3261.23
3238.74
3208.52
3169.56
3119.07
3055.47
2979.18
2884.91
2759.16
2911.01
2785.63
2791.36
2804.42
2814.95
2819.03
2817.99
2814.05
2809.38
2805.34
2801.94
2799.3
2797.78
2797.38
2797.77
2798.89
2800.55
2802.27
2803.42
2803.77
2803.45
2802.25
2800.71
2799.56
2799.23
2799.6
2800.93
2802.55
2804.09
2805.62
2807.11
2808.46
2809.7
2810.95
2812.28
2813.74
2815.27
2816.86
2818.49
2820.17
2821.92
2823.74
2825.65
2827.67
2829.8
2832.05
2834.41
2836.92
2839.59
2842.44
2845.51
2848.79
2852.3
2856.02
2859.95
2864.1
2868.47
2873.06
2877.88
2882.93
2888.22
2893.75
2899.51
2905.51
2911.75
2918.22
2924.93
2931.89
2939.09
2946.53
2954.22
2962.16
2970.35
2978.77
2987.45
2996.36
3005.51
3014.9
3024.53
3034.39
3044.49
3054.81
3065.35
3076.11
3087.07
3098.24
3109.6
3121.15
3132.86
3144.73
3156.76
3168.91
3181.16
3193.5
3205.9
3218.33
3230.75
3243.11
3255.37
3267.48
3279.34
3290.9
3302.01
3312.58
3322.42
3331.32
3339.15
3345.3
3349.81
3352.07
3352.1
3347.5
3339.25
3324.96
3304.36
3276.03
3236.86
3184.8
3117.01
3029.45
2912.03
2906.07
2776.69
2779.54
2791.33
2805.55
2813.14
2814.7
2812.44
2808.05
2804.03
2800.68
2797.93
2795.68
2794.55
2794.53
2795.5
2797.42
2799.77
2801.82
2802.73
2802.94
2802.41
2801.54
2800.76
2800.56
2801.05
2802.45
2804.12
2805.75
2807.39
2808.98
2810.43
2811.77
2813.11
2814.54
2816.1
2817.74
2819.45
2821.21
2823.03
2824.92
2826.9
2828.97
2831.14
2833.43
2835.83
2838.36
2841.02
2843.84
2846.84
2850.05
2853.48
2857.13
2860.99
2865.07
2869.36
2873.86
2878.59
2883.55
2888.75
2894.18
2899.85
2905.76
2911.91
2918.3
2924.93
2931.8
2938.93
2946.3
2953.92
2961.79
2969.92
2978.3
2986.94
2995.83
3004.97
3014.36
3024
3033.89
3044.03
3054.42
3065.06
3075.93
3087.05
3098.39
3109.96
3121.76
3133.76
3145.98
3158.39
3170.99
3183.78
3196.71
3209.8
3223.01
3236.34
3249.74
3263.19
3276.65
3290.08
3303.44
3316.65
3329.64
3342.32
3354.53
3366.18
3377.04
3386.89
3395.54
3402.23
3407.11
3409.29
3408.65
3402.68
3391.93
3373.79
3345.67
3304.92
3245.82
3167.36
3057.18
2903.35
2771.53
2770.12
2777.89
2793.25
2805.38
2810.09
2809.71
2806.57
2802.94
2799.81
2797.16
2794.7
2792.82
2792.04
2792.42
2794.04
2796.77
2799.61
2801.39
2802.25
2802.22
2802.05
2801.8
2801.83
2802.53
2803.98
2805.69
2807.41
2809.13
2810.8
2812.33
2813.76
2815.18
2816.7
2818.36
2820.11
2821.93
2823.81
2825.77
2827.81
2829.93
2832.14
2834.47
2836.91
2839.47
2842.14
2844.95
2847.91
2851.06
2854.42
2857.98
2861.77
2865.77
2869.98
2874.4
2879.04
2883.9
2889
2894.32
2899.89
2905.7
2911.74
2918.03
2924.56
2931.34
2938.36
2945.64
2953.17
2960.95
2968.99
2977.29
2985.85
2994.67
3003.75
3013.09
3022.7
3032.56
3042.69
3053.08
3063.73
3074.64
3085.81
3097.23
3108.9
3120.82
3132.99
3145.4
3158.04
3170.91
3184.02
3197.34
3210.86
3224.58
3238.48
3252.56
3266.79
3281.16
3295.62
3310.17
3324.77
3339.37
3353.91
3368.35
3382.56
3396.48
3409.92
3422.79
3434.82
3445.78
3455.35
3462.75
3467.97
3469.87
3467.81
3459.22
3443.19
3415.81
3368.45
3303.69
3201.51
2900.29
2767.68
2762.33
2766.28
2780.31
2796.02
2804.28
2806.29
2804.79
2801.93
2799.18
2796.73
2794.24
2791.94
2790.43
2790.04
2790.92
2793.5
2796.9
2799.67
2801.3
2801.87
2802.29
2802.62
2803.05
2803.99
2805.51
2807.26
2809.05
2810.84
2812.56
2814.16
2815.66
2817.17
2818.78
2820.53
2822.39
2824.32
2826.32
2828.41
2830.58
2832.84
2835.2
2837.67
2840.25
2842.95
2845.77
2848.72
2851.82
2855.11
2858.61
2862.31
2866.23
2870.36
2874.7
2879.25
2884.02
2889.01
2894.23
2899.68
2905.38
2911.31
2917.49
2923.91
2930.57
2937.48
2944.64
2952.06
2959.73
2967.66
2975.85
2984.31
2993.03
3002.03
3011.28
3020.81
3030.61
3040.67
3051.01
3061.62
3072.5
3083.65
3095.07
3106.77
3118.73
3130.95
3143.45
3156.21
3169.22
3182.49
3196.02
3209.8
3223.82
3238.08
3252.56
3267.28
3282.21
3297.34
3312.65
3328.12
3343.75
3359.5
3375.33
3391.21
3407.07
3422.85
3438.45
3453.78
3468.65
3482.95
3496.32
3508.52
3518.98
3526.97
3532.33
3533.85
3529.85
3516.16
3483.46
3437.23
3346.57
2896.4
2763.67
2756.54
2757.94
2768.62
2785.62
2797.63
2802.18
2802.49
2800.88
2798.7
2796.5
2794.11
2791.53
2789.41
2788.39
2788.56
2790.42
2794.01
2797.7
2800.14
2801.44
2802.38
2803.28
2804.19
2805.41
2807.02
2808.82
2810.66
2812.49
2814.25
2815.9
2817.47
2819.06
2820.76
2822.61
2824.57
2826.61
2828.73
2830.94
2833.24
2835.63
2838.13
2840.74
2843.46
2846.3
2849.25
2852.33
2855.57
2859
2862.63
2866.47
2870.52
2874.77
2879.24
2883.91
2888.8
2893.9
2899.24
2904.82
2910.64
2916.69
2922.99
2929.53
2936.32
2943.36
2950.65
2958.19
2966
2974.07
2982.4
2991
2999.88
3009.03
3018.44
3028.14
3038.11
3048.36
3058.88
3069.69
3080.78
3092.15
3103.81
3115.74
3127.96
3140.46
3153.24
3166.3
3179.64
3193.26
3207.16
3221.34
3235.79
3250.51
3265.5
3280.75
3296.27
3312.05
3328.06
3344.31
3360.79
3377.48
3394.37
3411.43
3428.62
3445.91
3463.24
3480.54
3497.71
3514.66
3531.16
3547.14
3562.14
3575.95
3587.53
3596.37
3601.81
3601.75
3586.15
3560.86
3495.59
2890.98
2759.75
2752.26
2751.88
2758.78
2775.13
2790.14
2797.58
2799.67
2799.42
2798.27
2796.42
2794.11
2791.33
2788.74
2787.1
2786.83
2787.97
2791.36
2795.67
2798.91
2800.98
2802.46
2803.87
2805.24
2806.74
2808.47
2810.31
2812.2
2814.06
2815.86
2817.55
2819.18
2820.86
2822.66
2824.61
2826.67
2828.82
2831.05
2833.38
2835.8
2838.32
2840.95
2843.69
2846.54
2849.51
2852.59
2855.8
2859.17
2862.73
2866.49
2870.46
2874.63
2879.01
2883.59
2888.38
2893.38
2898.61
2904.06
2909.75
2915.69
2921.86
2928.27
2934.93
2941.83
2948.99
2956.4
2964.07
2972
2980.2
2988.66
2997.4
3006.41
3015.7
3025.27
3035.12
3045.25
3055.67
3066.37
3077.36
3088.64
3100.21
3112.07
3124.22
3136.67
3149.41
3162.45
3175.79
3189.42
3203.34
3217.57
3232.1
3246.92
3262.04
3277.46
3293.18
3309.2
3325.52
3342.13
3359.03
3376.22
3393.7
3411.46
3429.48
3447.76
3466.27
3484.98
3503.85
3522.85
3541.9
3560.9
3579.74
3598.2
3616.15
3632.92
3648.43
3661.14
3670.61
3673.61
3663.85
3635.03
2883.82
2756.38
2748.5
2746.75
2750.8
2765.18
2782.04
2792.34
2796.48
2797.61
2797.51
2796.25
2794.16
2791.24
2788.23
2786.04
2785.39
2786.13
2789.23
2793.82
2797.72
2800.51
2802.56
2804.43
2806.21
2807.99
2809.83
2811.73
2813.65
2815.55
2817.37
2819.11
2820.81
2822.57
2824.48
2826.53
2828.69
2830.93
2833.28
2835.72
2838.26
2840.91
2843.66
2846.52
2849.5
2852.58
2855.78
2859.12
2862.62
2866.3
2870.19
2874.28
2878.57
2883.07
2887.76
2892.66
2897.77
2903.11
2908.67
2914.48
2920.52
2926.8
2933.33
2940.1
2947.11
2954.38
2961.9
2969.69
2977.74
2986.06
2994.65
3003.52
3012.67
3022.09
3031.8
3041.8
3052.08
3062.66
3073.52
3084.68
3096.14
3107.9
3119.95
3132.31
3144.98
3157.95
3171.22
3184.81
3198.71
3212.91
3227.44
3242.28
3257.44
3272.92
3288.72
3304.85
3321.31
3338.1
3355.22
3372.67
3390.46
3408.59
3427.06
3445.87
3465.02
3484.5
3504.29
3524.38
3544.76
3565.38
3586.22
3607.16
3628.17
3649.09
3669.68
3689.8
3708.62
3725.63
3739.13
3743.87
3745.76
2874.9
2753.51
2744.81
2742.05
2744.22
2756.08
2773.79
2786.62
2792.87
2795.57
2796.5
2795.87
2794.11
2791.09
2787.77
2785.14
2784.24
2784.74
2787.64
2792.33
2796.7
2800.11
2802.69
2804.97
2807.11
2809.13
2811.09
2813.04
2815
2816.93
2818.79
2820.57
2822.34
2824.2
2826.21
2828.36
2830.61
2832.96
2835.41
2837.97
2840.63
2843.39
2846.26
2849.24
2852.33
2855.53
2858.85
2862.3
2865.92
2869.73
2873.74
2877.94
2882.35
2886.95
2891.75
2896.76
2901.98
2907.42
2913.09
2919
2925.14
2931.53
2938.16
2945.03
2952.15
2959.53
2967.16
2975.06
2983.22
2991.66
3000.36
3009.35
3018.62
3028.18
3038.02
3048.16
3058.58
3069.3
3080.32
3091.64
3103.26
3115.19
3127.43
3139.98
3152.84
3166.02
3179.52
3193.33
3207.47
3221.93
3236.72
3251.85
3267.31
3283.11
3299.25
3315.74
3332.59
3349.79
3367.35
3385.27
3403.56
3422.23
3441.28
3460.73
3480.55
3500.78
3521.38
3542.37
3563.75
3585.48
3607.58
3629.93
3652.61
3675.38
3698.19
3720.83
3742.7
3763.85
3781.99
3794.98
3809.39
2863.94
2750.34
2741.25
2737.72
2738.72
2748.07
2765.89
2780.76
2789.07
2793.33
2795.14
2795.38
2793.86
2790.83
2787.23
2784.37
2783.37
2783.78
2786.58
2791.28
2795.98
2799.84
2802.87
2805.5
2807.92
2810.14
2812.22
2814.24
2816.24
2818.2
2820.1
2821.93
2823.78
2825.74
2827.85
2830.1
2832.45
2834.9
2837.45
2840.12
2842.89
2845.76
2848.74
2851.84
2855.04
2858.34
2861.77
2865.33
2869.07
2873
2877.12
2881.44
2885.95
2890.66
2895.56
2900.66
2905.98
2911.52
2917.29