/*--------------------------------*- C++ -*----------------------------------*\
| =========                 |                                                 |
| \\      /  F ield         | OpenFOAM: The Open Source CFD Toolbox           |
|  \\    /   O peration     | Version:  2412                                  |
|   \\  /    A nd           | Website:  www.openfoam.com                      |
|    \\/     M anipulation  |                                                 |
\*---------------------------------------------------------------------------*/
FoamFile
{
    version     2.0;
    format      ascii;
    arch        "LSB;label=32;scalar=64";
    class       volScalarField;
    location    "0.048";
    object      p;
}
// * * * * * * * * * * * * * * * * * * * * * * * * * * * * * * * * * * * * * //

dimensions      [1 -1 -2 0 0 0 0];

internalField   nonuniform List<scalar> 
78650
(
2790
2790
2790.06
2791.03
2796.31
2806.71
2814.78
2817.82
2815.79
2805.88
2791.06
2778.76
2769.74
2762.19
2754.48
2747.02
2742.21
2741.06
2742.02
2744.99
2747.75
2748.69
2748.56
2747.56
2745.93
2744.27
2742.75
2741.27
2739.77
2738.3
2736.88
2735.5
2734.16
2732.83
2731.47
2730.05
2728.51
2726.84
2725.05
2723.13
2721.11
2719.03
2716.94
2714.87
2712.85
2710.89
2709.02
2707.24
2705.57
2704.02
2702.58
2701.24
2699.98
2698.8
2697.68
2696.62
2695.59
2694.58
2693.56
2692.52
2691.42
2690.23
2688.91
2687.43
2685.76
2683.85
2681.68
2679.19
2676.33
2673.03
2669.24
2664.9
2659.97
2654.36
2647.95
2640.64
2632.33
2622.94
2612.38
2600.56
2587.33
2572.56
2556.08
2537.78
2517.48
2495
2470.16
2442.86
2413.15
2380.79
2345.61
2306.94
2265.44
2220.74
2173.88
2124.14
2070.28
2012.91
1951.7
1890.08
1827.59
1762.64
1696.41
1633.88
1570.56
1507.41
1445.12
1381.22
1323.39
1271.09
1223.81
1181.71
1141.96
1104.97
1071.15
1038.72
1009.81
983.979
963.668
947.784
914.148
2790
2790
2790.03
2790.63
2794.73
2804.68
2814.14
2818.2
2817.01
2809.27
2795
2782.3
2773.1
2765.77
2758.44
2750.77
2744.82
2742.68
2742.96
2745.25
2748.41
2749.99
2750.2
2749.65
2748.31
2746.75
2745.34
2744.01
2742.65
2741.31
2740
2738.75
2737.54
2736.36
2735.16
2733.89
2732.52
2731.01
2729.36
2727.6
2725.74
2723.82
2721.89
2719.98
2718.13
2716.35
2714.66
2713.06
2711.58
2710.22
2708.99
2707.87
2706.84
2705.9
2705.04
2704.25
2703.51
2702.81
2702.12
2701.43
2700.7
2699.91
2699.02
2698.01
2696.83
2695.45
2693.85
2691.97
2689.78
2687.21
2684.19
2680.69
2676.66
2672.02
2666.68
2660.54
2653.49
2645.46
2636.36
2626.1
2614.55
2601.58
2587.07
2570.89
2552.89
2532.85
2510.56
2485.83
2458.59
2428.55
2395.76
2359.99
2321.78
2280.51
2236.55
2188.83
2137.93
2083.61
2026.98
1968.17
1905.78
1842.15
1776.11
1711.21
1646.39
1581.22
1521
1457.75
1395.38
1338.23
1282.17
1231.92
1185.7
1143.14
1105.33
1069.95
1039.06
1009.43
982.894
960.252
918.87
2790
2790
2790.01
2790.36
2793.37
2802.42
2813.03
2818.32
2817.94
2812.45
2799.12
2786.01
2776.53
2769.33
2762.41
2754.79
2747.99
2744.58
2744.15
2745.63
2748.9
2751.23
2751.88
2751.67
2750.73
2749.34
2748.02
2746.83
2745.62
2744.4
2743.21
2742.07
2740.99
2739.95
2738.91
2737.82
2736.61
2735.25
2733.75
2732.14
2730.43
2728.68
2726.91
2725.18
2723.5
2721.9
2720.38
2718.97
2717.68
2716.53
2715.5
2714.6
2713.81
2713.12
2712.51
2711.99
2711.54
2711.15
2710.79
2710.44
2710.08
2709.69
2709.23
2708.67
2707.98
2707.13
2706.08
2704.81
2703.27
2701.4
2699.13
2696.44
2693.28
2689.58
2685.26
2680.22
2674.36
2667.61
2659.87
2651.08
2641.1
2629.83
2617.13
2602.89
2586.91
2569.03
2549.07
2526.85
2502.29
2475.16
2445.45
2412.91
2377.77
2339.47
2298.31
2253.56
2205.76
2154.63
2099.55
2042
1980.24
1918.48
1854.26
1787.37
1722.76
1654.6
1588.73
1526.2
1460.51
1400.04
1339.54
1282.25
1229.99
1181.61
1139
1100.31
1066.1
1034.87
1007.35
982.732
933.446
2790
2790
2790.01
2790.19
2792.25
2800.04
2811.34
2818.23
2818.74
2815.31
2803.31
2789.96
2780.14
2772.93
2766.37
2758.98
2751.61
2746.88
2745.62
2746.37
2749.32
2752.32
2753.58
2753.69
2753.19
2752.06
2750.82
2749.75
2748.7
2747.61
2746.53
2745.5
2744.54
2743.65
2742.77
2741.84
2740.8
2739.6
2738.25
2736.79
2735.24
2733.65
2732.05
2730.48
2728.98
2727.55
2726.22
2724.99
2723.9
2722.93
2722.11
2721.43
2720.86
2720.41
2720.06
2719.79
2719.63
2719.53
2719.48
2719.47
2719.47
2719.46
2719.41
2719.29
2719.07
2718.73
2718.22
2717.52
2716.6
2715.4
2713.87
2711.95
2709.62
2706.82
2703.49
2699.51
2694.82
2689.32
2682.93
2675.58
2667.16
2657.58
2646.69
2634.37
2620.48
2604.88
2587.4
2567.81
2545.89
2521.43
2494.47
2464.9
2432.82
2397.58
2359.19
2316.98
2271.64
2222.93
2171.32
2116.82
2059.84
1997.92
1935.37
1867.68
1800.96
1733.47
1662.78
1597.81
1531.03
1466.19
1405.27
1343.97
1286.73
1231.69
1180.4
1134.7
1094.89
1058.94
1029.69
1005.61
957.204
2790
2790
2790
2790.09
2791.39
2797.7
2809.12
2817.76
2819.45
2817.63
2807.48
2794.21
2783.98
2776.57
2770.23
2763.21
2755.62
2749.76
2747.53
2747.63
2749.81
2753.22
2755.29
2755.84
2755.69
2754.91
2753.8
2752.82
2751.9
2750.94
2749.98
2749.06
2748.22
2747.47
2746.75
2745.99
2745.11
2744.07
2742.88
2741.57
2740.18
2738.75
2737.32
2735.92
2734.59
2733.35
2732.2
2731.17
2730.26
2729.49
2728.88
2728.41
2728.08
2727.86
2727.76
2727.76
2727.87
2728.07
2728.33
2728.65
2729.01
2729.37
2729.72
2730.03
2730.27
2730.41
2730.44
2730.3
2729.99
2729.45
2728.61
2727.45
2725.93
2723.99
2721.59
2718.64
2715.05
2710.73
2705.61
2699.62
2692.66
2684.65
2675.44
2664.94
2653
2639.5
2624.25
2607.01
2587.63
2565.98
2542.07
2515.62
2486.47
2454.03
2418.54
2379.76
2338.21
2293.41
2245.24
2193.45
2138.04
2078.88
2017.66
1952.57
1883.53
1817.05
1746.15
1674.6
1606.03
1535.56
1471.99
1408.57
1348.09
1291.31
1236.09
1184.32
1136.04
1090.31
1050.95
1018.62
956.656
2790
2790
2790
2790.04
2790.78
2795.52
2806.44
2816.76
2819.98
2819.38
2811.63
2798.86
2788.04
2780.2
2773.95
2767.41
2759.98
2753.36
2749.94
2749.35
2750.66
2754.04
2756.93
2758.1
2758.25
2757.86
2756.93
2756.02
2755.22
2754.4
2753.56
2752.75
2752.03
2751.41
2750.86
2750.28
2749.57
2748.69
2747.65
2746.49
2745.26
2744
2742.74
2741.52
2740.37
2739.31
2738.35
2737.5
2736.78
2736.21
2735.8
2735.54
2735.44
2735.45
2735.6
2735.86
2736.23
2736.71
2737.28
2737.93
2738.62
2739.35
2740.09
2740.82
2741.51
2742.12
2742.64
2743.06
2743.31
2743.4
2743.24
2742.82
2742.09
2740.96
2739.46
2737.49
2734.96
2731.8
2727.93
2723.28
2717.76
2711.3
2703.78
2695.08
2685.08
2673.65
2660.63
2645.83
2629.09
2610.18
2589.01
2565.29
2538.98
2509.74
2477.8
2442.76
2404.7
2362.94
2317.51
2268.65
2216.44
2161.04
2101
2038.91
1972.14
1903.61
1833.76
1761.07
1690.84
1616.28
1543.84
1475.05
1406.84
1345.9
1287.25
1234.08
1186.4
1142.67
1101.7
1064.59
991.489
2790
2790
2790
2790.02
2790.4
2793.65
2803.43
2815.08
2820.12
2820.76
2815.61
2803.69
2792.14
2783.78
2777.6
2771.58
2764.61
2757.64
2753.04
2751.63
2752.17
2754.95
2758.42
2760.41
2760.95
2760.85
2760.2
2759.37
2758.67
2757.97
2757.26
2756.56
2755.96
2755.49
2755.1
2754.69
2754.15
2753.43
2752.55
2751.55
2750.48
2749.39
2748.3
2747.26
2746.29
2745.42
2744.64
2743.99
2743.47
2743.09
2742.88
2742.84
2742.96
2743.22
2743.6
2744.12
2744.76
2745.53
2746.4
2747.36
2748.39
2749.48
2750.61
2751.74
2752.86
2753.94
2754.97
2755.91
2756.73
2757.41
2757.9
2758.16
2758.2
2757.88
2757.25
2756.22
2754.7
2752.63
2749.92
2746.52
2742.36
2737.34
2731.38
2724.35
2716.15
2706.65
2695.74
2683.21
2668.89
2652.59
2634.22
2613.52
2590.41
2564.52
2535.98
2504.42
2469.86
2431.68
2389.9
2344.23
2294.46
2241.43
2184.99
2124.68
2061.4
1992.83
1924.61
1852.51
1781.16
1707.98
1632.42
1560.27
1485.85
1415.14
1347.31
1282.07
1224.53
1174.28
1132.69
1098.09
1025.4
2790
2790
2790
2790.01
2790.18
2792.2
2800.29
2812.67
2819.88
2822.02
2819.01
2808.4
2796.3
2787.5
2781.32
2775.79
2769.42
2762.48
2756.95
2754.52
2754.37
2756.15
2759.73
2762.6
2763.72
2763.88
2763.53
2762.83
2762.2
2761.63
2761.05
2760.48
2760
2759.67
2759.45
2759.21
2758.85
2758.3
2757.58
2756.73
2755.83
2754.91
2754.01
2753.15
2752.36
2751.67
2751.09
2750.63
2750.3
2750.12
2750.1
2750.28
2750.62
2751.1
2751.73
2752.5
2753.4
2754.44
2755.6
2756.87
2758.23
2759.67
2761.16
2762.69
2764.23
2765.77
2767.26
2768.71
2770.08
2771.35
2772.47
2773.4
2774.12
2774.59
2774.78
2774.65
2774.11
2773.12
2771.53
2769.37
2766.52
2762.92
2758.5
2753.14
2746.73
2739.15
2730.29
2719.99
2708.09
2694.37
2678.68
2660.76
2640.58
2617.9
2592.76
2564.62
2533.33
2498.33
2459.81
2417.7
2371.98
2322.8
2269.43
2212.4
2151.5
2086.27
2018.19
1944.88
1869.12
1796.02
1719.14
1644.74
1571.23
1498.11
1427.43
1359
1292.56
1229.9
1173.4
1126.45
1032.83
2790
2790
2790
2790
2790.07
2791.18
2797.29
2809.58
2819.21
2823
2821.33
2812.84
2800.75
2791.53
2785.18
2780
2774.27
2767.68
2761.64
2758.06
2757.15
2757.97
2761.01
2764.51
2766.43
2766.92
2766.84
2766.33
2765.79
2765.33
2764.9
2764.47
2764.13
2763.95
2763.9
2763.84
2763.66
2763.28
2762.72
2762.03
2761.29
2760.55
2759.82
2759.15
2758.55
2758.05
2757.66
2757.38
2757.25
2757.27
2757.47
2757.84
2758.39
2759.1
2759.97
2760.99
2762.16
2763.48
2764.93
2766.5
2768.19
2769.97
2771.82
2773.73
2775.69
2777.66
2779.62
2781.56
2783.45
2785.28
2787.01
2788.6
2790.02
2791.23
2792.2
2792.89
2793.25
2793.29
2792.79
2791.8
2790.18
2787.91
2784.89
2781.07
2776.31
2770.51
2763.57
2755.35
2745.69
2734.41
2721.35
2706.32
2689.27
2669.85
2647.93
2623.03
2595.21
2564.14
2529.88
2492.05
2450.54
2405.28
2355.52
2301.99
2244.24
2182.85
2116.7
2047.04
1972.27
1896.17
1816.58
1735.62
1656.83
1577.65
1501.36
1430.45
1364.39
1303.47
1245.94
1194.86
1091.58
2790
2790
2790
2790
2790.02
2790.56
2794.7
2805.93
2817.8
2823.32
2822.86
2817.09
2805.58
2795.83
2789.18
2784.21
2779.11
2773.09
2766.95
2762.37
2760.49
2760.49
2762.4
2766.04
2768.87
2769.94
2770.07
2769.81
2769.38
2769.04
2768.77
2768.52
2768.33
2768.31
2768.43
2768.55
2768.54
2768.35
2767.95
2767.42
2766.84
2766.27
2765.73
2765.24
2764.83
2764.52
2764.32
2764.24
2764.31
2764.53
2764.91
2765.48
2766.25
2767.19
2768.29
2769.56
2770.98
2772.56
2774.29
2776.15
2778.15
2780.26
2782.46
2784.75
2787.09
2789.48
2791.89
2794.3
2796.7
2799.07
2801.38
2803.59
2805.67
2807.59
2809.33
2810.85
2812.08
2812.99
2813.55
2813.69
2813.29
2812.33
2810.71
2808.39
2805.25
2801.2
2796.14
2789.94
2782.48
2773.56
2763.05
2750.71
2736.44
2719.96
2701.21
2679.79
2655.73
2628.58
2598.36
2564.64
2527.23
2485.82
2440
2390.22
2335.44
2276.83
2214.21
2147.45
2076.67
2000.18
1922.9
1840.35
1759.7
1673.18
1589.74
1505.5
1425.43
1352.6
1290.32
1240.62
1138.13
2790
2790
2790
2790
2790.01
2790.23
2792.72
2802.05
2815.28
2823.13
2823.95
2820.86
2810.49
2800.22
2793.28
2788.47
2783.92
2778.5
2772.53
2767.29
2764.25
2763.44
2764.26
2767.33
2770.86
2772.76
2773.25
2773.21
2772.96
2772.76
2772.67
2772.62
2772.61
2772.74
2773.04
2773.35
2773.5
2773.46
2773.24
2772.88
2772.47
2772.07
2771.72
2771.41
2771.19
2771.07
2771.06
2771.19
2771.44
2771.84
2772.42
2773.19
2774.17
2775.33
2776.66
2778.17
2779.84
2781.68
2783.69
2785.84
2788.14
2790.57
2793.12
2795.77
2798.5
2801.29
2804.14
2807.01
2809.9
2812.78
2815.64
2818.45
2821.17
2823.77
2826.23
2828.52
2830.6
2832.43
2833.93
2835.06
2835.78
2836.03
2835.73
2834.81
2833.19
2830.75
2827.42
2823.09
2817.67
2810.98
2802.87
2793.15
2781.72
2768.32
2752.82
2734.85
2714.39
2691.04
2664.75
2634.95
2601.46
2564
2522.32
2476.58
2426.04
2371.46
2311.85
2247.88
2179.48
2105.67
2030.5
1949.02
1867.25
1783.29
1697.84
1614.39
1528.53
1447.16
1367.8
1299.89
1167.63
2790
2790
2790
2790
2790
2790.08
2791.4
2798.38
2811.76
2822.24
2824.95
2823.65
2815.17
2804.79
2797.6
2792.79
2788.61
2783.67
2777.98
2772.49
2768.48
2766.78
2766.77
2768.68
2772.42
2775.29
2776.44
2776.64
2776.58
2776.51
2776.58
2776.76
2776.98
2777.29
2777.73
2778.21
2778.54
2778.65
2778.58
2778.38
2778.14
2777.92
2777.74
2777.63
2777.59
2777.66
2777.84
2778.14
2778.58
2779.18
2779.95
2780.92
2782.1
2783.47
2785.03
2786.77
2788.68
2790.77
2793.04
2795.48
2798.07
2800.81
2803.68
2806.67
2809.77
2812.95
2816.21
2819.52
2822.87
2826.25
2829.64
2833.01
2836.34
2839.58
2842.73
2845.76
2848.63
2851.3
2853.74
2855.88
2857.67
2859.04
2859.96
2860.38
2860.26
2859.41
2857.81
2855.27
2851.81
2847.23
2841.41
2834.17
2825.38
2814.77
2802.28
2787.58
2770.64
2751
2728.53
2702.73
2673.52
2640.57
2603.66
2562.66
2517.03
2467.08
2411.53
2351.32
2286.03
2216.15
2140.18
2060.05
1972.03
1887.57
1795.43
1706.65
1618.97
1538.09
1462.94
1396.29
1261.98
2790
2790
2790
2790
2790
2790.03
2790.63
2795.29
2807.63
2820.49
2825.4
2825.41
2819.61
2809.64
2802
2796.94
2792.94
2788.42
2783.14
2777.73
2773.21
2770.55
2769.82
2770.63
2773.83
2777.47
2779.52
2780.16
2780.28
2780.35
2780.58
2780.98
2781.43
2781.93
2782.52
2783.13
2783.63
2783.89
2783.96
2783.92
2783.84
2783.79
2783.79
2783.86
2784.01
2784.25
2784.61
2785.1
2785.73
2786.52
2787.47
2788.63
2790.01
2791.59
2793.36
2795.33
2797.48
2799.82
2802.35
2805.05
2807.93
2810.97
2814.16
2817.49
2820.94
2824.5
2828.16
2831.89
2835.69
2839.54
2843.43
2847.34
2851.24
2855.11
2858.91
2862.64
2866.26
2869.73
2873.03
2876.09
2878.88
2881.35
2883.44
2885.06
2886.19
2886.77
2886.81
2885.97
2884.36
2881.74
2878.07
2873.17
2866.91
2859.09
2849.6
2838.13
2824.58
2808.5
2789.82
2768.08
2743.25
2714.94
2682.95
2646.93
2606.27
2561.08
2510.55
2455.45
2394.29
2328.01
2256.3
2179.67
2097.4
2009.41
1917.27
1816.9
1719.67
1623.61
1533.55
1456.94
1302.8
2790
2790
2790
2790
2790
2790.01
2790.25
2793
2803.32
2817.7
2825.12
2826.8
2823.54
2814.45
2806.17
2800.78
2796.96
2792.92
2788.11
2782.98
2778.3
2774.89
2773.42
2773.44
2775.48
2779.37
2782.41
2783.75
2784.16
2784.37
2784.71
2785.29
2785.98
2786.69
2787.42
2788.15
2788.76
2789.17
2789.38
2789.48
2789.55
2789.66
2789.83
2790.07
2790.39
2790.81
2791.35
2792.02
2792.83
2793.8
2794.94
2796.28
2797.84
2799.62
2801.61
2803.8
2806.18
2808.75
2811.53
2814.49
2817.64
2820.97
2824.46
2828.11
2831.89
2835.81
2839.84
2843.98
2848.2
2852.5
2856.86
2861.28
2865.72
2870.16
2874.58
2878.97
2883.29
2887.52
2891.63
2895.57
2899.31
2902.79
2905.97
2908.8
2911.24
2913.17
2914.58
2915.39
2915.57
2914.84
2913.22
2910.51
2906.61
2901.34
2894.6
2886.09
2875.74
2863.14
2848.26
2830.64
2810.21
2786.5
2759.23
2727.89
2692.03
2651.65
2606.07
2555.64
2499.11
2437.34
2369.52
2296.27
2218
2132.63
2044.78
1949.73
1854.2
1760.73
1661.43
1571.16
1394.16
2790
2790
2790
2790
2790
2790
2790.08
2791.52
2799.29
2814
2824.26
2828.1
2826.41
2818.7
2810.1
2804.49
2800.88
2797.29
2792.93
2788.11
2783.51
2779.73
2777.53
2776.93
2777.86
2781.28
2785.12
2787.35
2788.2
2788.57
2789.02
2789.74
2790.64
2791.54
2792.41
2793.24
2793.94
2794.47
2794.81
2795.05
2795.25
2795.5
2795.83
2796.24
2796.73
2797.32
2798.02
2798.86
2799.85
2800.99
2802.31
2803.83
2805.58
2807.55
2809.74
2812.14
2814.74
2817.54
2820.56
2823.78
2827.19
2830.79
2834.57
2838.53
2842.64
2846.89
2851.29
2855.8
2860.43
2865.16
2869.97
2874.87
2879.83
2884.82
2889.82
2894.83
2899.81
2904.75
2909.61
2914.37
2918.98
2923.4
2927.6
2931.51
2935.1
2938.32
2941.12
2943.37
2945.03
2946.04
2946.34
2945.71
2944.08
2941.26
2937.14
2931.51
2924.24
2915
2903.73
2889.96
2873.61
2854.13
2831.31
2804.65
2773.87
2738.75
2698.59
2653.51
2602.52
2546.06
2482.66
2413.25
2337.27
2255.02
2164.37
2069.08
1965.1
1864.04
1764.5
1681.67
1517.21
2790
2790
2790
2790
2790
2790
2790.03
2790.68
2795.95
2809.71
2822.91
2828.66
2828.14
2822.58
2814.05
2808.22
2804.72
2801.52
2797.55
2793.05
2788.69
2784.87
2782.16
2781.04
2781.23
2783.57
2787.68
2790.85
2792.33
2792.97
2793.52
2794.32
2795.38
2796.47
2797.47
2798.37
2799.16
2799.78
2800.24
2800.6
2800.93
2801.31
2801.78
2802.34
2802.98
2803.73
2804.59
2805.59
2806.75
2808.06
2809.55
2811.24
2813.16
2815.32
2817.71
2820.31
2823.12
2826.14
2829.39
2832.84
2836.51
2840.37
2844.43
2848.67
2853.08
2857.66
2862.39
2867.27
2872.28
2877.4
2882.64
2887.98
2893.41
2898.91
2904.46
2910.05
2915.65
2921.24
2926.81
2932.32
2937.75
2943.05
2948.2
2953.13
2957.83
2962.23
2966.3
2969.96
2973.15
2975.77
2977.73
2978.97
2979.43
2978.91
2977.24
2974.28
2969.86
2963.76
2955.88
2945.78
2933.37
2918.12
2899.92
2878.27
2852.92
2823.45
2789.3
2750.38
2705.67
2655.34
2598.19
2535.12
2464.59
2387.42
2303.04
2210.51
2114.22
2002.6
1888.78
1784.15
1589.5
2790
2790
2790
2790
2790
2790
2790.01
2790.28
2793.51
2805.32
2820.59
2828.66
2829.29
2825.99
2817.93
2811.83
2808.33
2805.48
2801.96
2797.81
2793.76
2790.14
2787.21
2785.59
2785.26
2786.45
2790.18
2794.12
2796.38
2797.38
2798.05
2798.93
2800.11
2801.36
2802.48
2803.47
2804.33
2805.04
2805.61
2806.08
2806.53
2807.03
2807.62
2808.31
2809.1
2810
2811.01
2812.16
2813.48
2814.96
2816.61
2818.47
2820.56
2822.89
2825.47
2828.27
2831.29
2834.52
2837.98
2841.67
2845.58
2849.69
2854.01
2858.53
2863.23
2868.12
2873.17
2878.39
2883.75
2889.26
2894.9
2900.66
2906.54
2912.52
2918.58
2924.71
2930.88
2937.09
2943.31
2949.52
2955.7
2961.81
2967.82
2973.7
2979.39
2984.88
2990.1
2995.02
2999.56
3003.67
3007.27
3010.24
3012.51
3014
3014.63
3014.23
3012.53
3009.41
3004.67
2998.02
2989.34
2978.18
2964.47
2947.66
2927.48
2903.36
2874.78
2841.44
2802.45
2757.79
2706.31
2648.53
2583.05
2510.9
2430.73
2343.05
2247.68
2149.93
2041.17
1942.21
1754.91
2790
2790
2790
2790
2790
2790
2790
2790.11
2791.92
2801.3
2817.41
2828.11
2830.3
2828.72
2821.48
2815.15
2811.66
2809.22
2806.21
2802.46
2798.67
2795.29
2792.38
2790.33
2789.56
2789.96
2792.74
2797.03
2800.11
2801.63
2802.52
2803.48
2804.75
2806.13
2807.37
2808.45
2809.39
2810.2
2810.88
2811.47
2812.03
2812.63
2813.33
2814.14
2815.07
2816.1
2817.25
2818.55
2820.02
2821.65
2823.47
2825.49
2827.74
2830.25
2833
2835.99
2839.21
2842.65
2846.32
2850.22
2854.36
2858.71
2863.28
2868.05
2873.03
2878.2
2883.55
2889.08
2894.79
2900.64
2906.65
2912.81
2919.1
2925.52
2932.05
2938.67
2945.37
2952.15
2958.97
2965.83
2972.69
2979.54
2986.35
2993.09
2999.71
3006.19
3012.49
3018.58
3024.38
3029.86
3034.92
3039.52
3043.56
3046.95
3049.56
3051.31
3052.1
3051.82
3050.02
3046.68
3041.51
3034.24
3024.72
3012.4
2997.01
2977.94
2954.8
2927.14
2894.27
2856.02
2811.24
2759.99
2700.88
2634.61
2559.45
2475.6
2382.4
2279.74
2169.5
2060.18
1871.56
2790
2790
2790
2790
2790
2790
2790
2790.04
2791
2797.98
2813.81
2827
2831.23
2830.55
2824.5
2818.24
2814.84
2812.81
2810.31
2806.9
2803.29
2800.08
2797.29
2795.03
2793.88
2793.8
2795.47
2799.62
2803.47
2805.64
2806.82
2807.89
2809.2
2810.67
2812.04
2813.22
2814.26
2815.18
2815.98
2816.68
2817.34
2818.04
2818.84
2819.77
2820.82
2821.98
2823.27
2824.71
2826.33
2828.11
2830.08
2832.26
2834.67
2837.34
2840.27
2843.45
2846.85
2850.49
2854.36
2858.47
2862.82
2867.4
2872.21
2877.23
2882.47
2887.91
2893.54
2899.37
2905.38
2911.57
2917.93
2924.45
2931.13
2937.96
2944.92
2952.01
2959.2
2966.5
2973.88
2981.33
2988.82
2996.35
3003.89
3011.41
3018.87
3026.25
3033.53
3040.65
3047.59
3054.29
3060.69
3066.73
3072.34
3077.44
3081.97
3085.81
3088.76
3090.78
3091.74
3091.55
3089.62
3086
3080.27
3072.17
3061.41
3047.47
3030.02
3008.53
2982.38
2951.15
2913.7
2869.96
2818.62
2759.86
2691.98
2615.31
2528.37
2431.59
2326.16
2215.4
2029.82
2790
2790
2790
2790
2790
2790
2790
2790.01
2790.5
2795.47
2810.22
2825.58
2831.72
2831.71
2827.14
2821.2
2817.9
2816.18
2814.1
2811
2807.51
2804.44
2801.84
2799.6
2798.17
2797.75
2798.62
2802.16
2806.54
2809.38
2810.92
2812.11
2813.45
2814.98
2816.44
2817.73
2818.88
2819.92
2820.84
2821.65
2822.41
2823.21
2824.11
2825.14
2826.32
2827.61
2829.03
2830.61
2832.37
2834.31
2836.43
2838.76
2841.33
2844.16
2847.26
2850.61
2854.2
2858.02
2862.09
2866.41
2870.96
2875.76
2880.79
2886.04
2891.52
2897.21
2903.11
2909.21
2915.52
2922.01
2928.69
2935.54
2942.58
2949.78
2957.14
2964.65
2972.29
2980.06
2987.94
2995.93
3004
3012.14
3020.33
3028.55
3036.78
3044.98
3053.13
3061.21
3069.17
3076.99
3084.6
3091.95
3098.99
3105.64
3111.86
3117.53
3122.58
3126.88
3130.2
3132.5
3133.62
3133.49
3131.34
3127.34
3120.99
3111.98
3099.87
3084.08
3064.04
3039.12
3008.31
2971.28
2926.65
2874.37
2813.09
2742.85
2661.56
2571.47
2467.64
2361.95
2192.06
2790
2790
2790
2790
2790
2790
2790
2790.01
2790.26
2793.72
2806.99
2823.91
2831.77
2832.64
2829.46
2824.01
2820.72
2819.19
2817.48
2814.71
2811.39
2808.45
2806.08
2804.01
2802.44
2801.81
2802.17
2804.86
2809.43
2812.89
2814.83
2816.17
2817.53
2819.06
2820.59
2821.97
2823.23
2824.38
2825.4
2826.31
2827.17
2828.06
2829.06
2830.21
2831.51
2832.94
2834.5
2836.22
2838.12
2840.21
2842.48
2844.97
2847.69
2850.68
2853.94
2857.47
2861.24
2865.25
2869.5
2874
2878.76
2883.76
2889
2894.47
2900.18
2906.11
2912.25
2918.61
2925.19
2931.96
2938.94
2946.1
2953.46
2961.01
2968.74
2976.63
2984.68
2992.88
3001.23
3009.7
3018.29
3026.99
3035.78
3044.64
3053.55
3062.48
3071.43
3080.35
3089.23
3098.03
3106.72
3115.24
3123.54
3131.58
3139.29
3146.62
3153.48
3159.75
3165.34
3170.12
3173.8
3176.39
3177.64
3177.53
3175.16
3170.68
3163.34
3152.86
3138.64
3120.06
3096.23
3066.69
3030.07
2986.17
2933.34
2870.55
2795.97
2709.39
2608.41
2498.9
2338.62
2790
2790
2790
2790
2790
2790
2790
2790
2790.14
2792.57
2804.31
2822.17
2831.55
2833.55
2831.49
2826.44
2823.17
2821.86
2820.52
2818.16
2815.04
2812.25
2810.11
2808.25
2806.68
2805.92
2805.95
2807.84
2812.26
2816.24
2818.6
2820.09
2821.46
2822.98
2824.53
2825.97
2827.3
2828.53
2829.64
2830.64
2831.58
2832.57
2833.67
2834.94
2836.37
2837.94
2839.65
2841.52
2843.56
2845.8
2848.23
2850.87
2853.75
2856.89
2860.32
2864.02
2867.96
2872.14
2876.58
2881.27
2886.21
2891.41
2896.85
2902.53
2908.44
2914.59
2920.97
2927.57
2934.39
2941.43
2948.68
2956.13
2963.78
2971.65
2979.7
2987.95
2996.37
3004.96
3013.72
3022.63
3031.69
3040.88
3050.2
3059.63
3069.15
3078.74
3088.38
3098.06
3107.75
3117.43
3127.07
3136.63
3146.06
3155.32
3164.37
3173.16
3181.63
3189.67
3197.21
3204.12
3210.29
3215.58
3219.67
3222.56
3223.97
3223.81
3220.98
3215.77
3207.3
3195.25
3178.72
3157.11
3128.94
3093.8
3049.74
2996.09
2931.09
2852.62
2761.3
2653.28
2504.19
2790
2790
2790
2790
2790
2790
2790
2790
2790.08
2791.87
2802.27
2820.59
2831.34
2834.47
2833.12
2828.42
2825.33
2824.27
2823.33
2821.39
2818.52
2815.87
2813.95
2812.29
2810.82
2809.97
2809.79
2811.12
2815.18
2819.52
2822.26
2823.92
2825.3
2826.77
2828.31
2829.77
2831.14
2832.41
2833.57
2834.62
2835.64
2836.71
2837.92
2839.32
2840.89
2842.6
2844.46
2846.48
2848.68
2851.08
2853.66
2856.46
2859.49
2862.79
2866.38
2870.25
2874.36
2878.71
2883.32
2888.19
2893.32
2898.7
2904.32
2910.2
2916.31
2922.67
2929.26
2936.08
2943.13
2950.41
2957.91
2965.62
2973.55
2981.7
2990.05
2998.62
3007.37
3016.32
3025.45
3034.76
3044.24
3053.88
3063.67
3073.6
3083.66
3093.84
3104.1
3114.45
3124.86
3135.32
3145.8
3156.26
3166.68
3177.02
3187.24
3197.3
3207.16
3216.76
3226
3234.8
3243.07
3250.66
3257.45
3263.29
3267.81
3271.02
3272.55
3272.27
3269.01
3262.92
3252.78
3238.2
3217.8
3191.03
3155.74
3111.28
3054.15
2982.09
2895.76
2789.83
2648.72
2790
2790
2790
2790
2790
2790
2790
2790
2790.06
2791.47
2800.88
2819.34
2831.33
2835.29
2834.33
2830.06
2827.3
2826.53
2825.95
2824.42
2821.8
2819.3
2817.57
2816.09
2814.76
2813.9
2813.6
2814.61
2818.26
2822.78
2825.85
2827.68
2829.07
2830.48
2831.97
2833.41
2834.76
2836.03
2837.2
2838.28
2839.35
2840.51
2841.83
2843.35
2845.06
2846.93
2848.94
2851.12
2853.48
2856.03
2858.77
2861.73
2864.92
2868.38
2872.13
2876.16
2880.44
2884.96
2889.74
2894.78
2900.08
2905.63
2911.44
2917.5
2923.8
2930.35
2937.14
2944.16
2951.43
2958.93
2966.66
2974.61
2982.79
2991.2
2999.83
3008.68
3017.74
3027
3036.47
3046.14
3055.99
3066.03
3076.24
3086.62
3097.16
3107.85
3118.66
3129.6
3140.64
3151.77
3162.98
3174.25
3185.53
3196.8
3208.04
3219.21
3230.29
3241.22
3251.95
3262.39
3272.48
3282.09
3291.16
3299.51
3307.02
3313.5
3318.52
3322.04
3323.65
3323.07
3318.92
3311.34
3298.83
3280.87
3255.4
3221.87
3175.82
3115.11
3037.13
2936.59
2801.63
2790
2790
2790
2790
2790
2790
2790
2790
2790.05
2791.3
2800.12
2818.61
2831.52
2835.94
2835.23
2831.48
2829.13
2828.66
2828.42
2827.26
2824.87
2822.53
2820.95
2819.63
2818.47
2817.68
2817.35
2818.23
2821.53
2826.09
2829.39
2831.36
2832.74
2834.09
2835.49
2836.86
2838.16
2839.39
2840.55
2841.64
2842.75
2843.98
2845.4
2847.05
2848.91
2850.93
2853.1
2855.44
2857.95
2860.67
2863.57
2866.69
2870.04
2873.66
2877.57
2881.76
2886.21
2890.89
2895.83
2901.03
2906.5
2912.23
2918.21
2924.44
2930.92
2937.65
2944.62
2951.83
2959.29
2967
2974.94
2983.11
2991.52
3000.16
3009.04
3018.15
3027.48
3037.03
3046.8
3056.78
3066.97
3077.36
3087.95
3098.73
3109.69
3120.83
3132.13
3143.58
3155.18
3166.9
3178.75
3190.71
3202.74
3214.83
3226.95
3239.08
3251.21
3263.29
3275.29
3287.14
3298.79
3310.15
3321.16
3331.68
3341.65
3350.86
3359.17
3366.33
3371.89
3375.78
3377.49
3376.55
3371.59
3362.43
3347.18
3325.33
3291.94
3244.23
3174.45
3080.55
2949.13
2790
2790
2790
2790
2790
2790
2790
2790
2790.05
2791.27
2799.98
2818.49
2831.89
2836.51
2835.96
2832.76
2830.91
2830.67
2830.72
2829.88
2827.68
2825.52
2824.1
2822.95
2822
2821.32
2821.05
2821.92
2824.98
2829.45
2832.87
2834.9
2836.24
2837.49
2838.8
2840.08
2841.31
2842.49
2843.62
2844.72
2845.87
2847.17
2848.69
2850.47
2852.46
2854.63
2856.96
2859.45
2862.13
2865.01
2868.08
2871.35
2874.86
2878.64
2882.72
2887.07
2891.67
2896.52
2901.62
2906.98
2912.61
2918.5
2924.64
2931.04
2937.68
2944.58
2951.73
2959.13
2966.77
2974.67
2982.8
2991.18
2999.8
3008.66
3017.77
3027.11
3036.69
3046.51
3056.55
3066.82
3077.31
3088.02
3098.94
3110.07
3121.42
3132.96
3144.68
3156.59
3168.67
3180.92
3193.33
3205.89
3218.58
3231.37
3244.26
3257.22
3270.25
3283.32
3296.41
3309.46
3322.44
3335.29
3347.95
3360.33
3372.38
3383.95
3394.96
3405.18
3414.46
3422.47
3428.75
3433.08
3434.87
3433.22
3426.32
3414.14
3393.16
3360.75
3304.98
3227.14
3101.1
2790
2790
2790
2790
2790
2790
2790
2790
2790.05
2791.32
2800.27
2818.98
2832.54
2837.07
2836.57
2833.93
2832.65
2832.62
2832.88
2832.24
2830.23
2828.29
2827.05
2826.08
2825.35
2824.82
2824.67
2825.59
2828.48
2832.76
2836.16
2838.17
2839.43
2840.58
2841.78
2842.99
2844.16
2845.31
2846.42
2847.54
2848.73
2850.11
2851.73
2853.63
2855.76
2858.07
2860.55
2863.2
2866.04
2869.07
2872.3
2875.73
2879.4
2883.35
2887.58
2892.09
2896.85
2901.85
2907.1
2912.62
2918.41
2924.45
2930.75
2937.3
2944.11
2951.17
2958.48
2966.04
2973.86
2981.93
2990.25
2998.82
3007.63
3016.69
3026.01
3035.57
3045.38
3055.43
3065.72
3076.26
3087.02
3098.02
3109.25
3120.7
3132.38
3144.28
3156.39
3168.71
3181.22
3193.93
3206.84
3219.93
3233.18
3246.6
3260.15
3273.84
3287.64
3301.57
3315.59
3329.68
3343.79
3357.9
3371.96
3385.91
3399.72
3413.29
3426.55
3439.35
3451.58
3462.99
3473.4
3482.35
3489.35
3494.07
3495.83
3493.47
3485.38
3468.42
3431.1
3377.91
3271.1
2790
2790
2790
2790
2790
2790
2790
2790
2790.06
2791.52
2801.16
2820.1
2833.37
2837.64
2837.11
2835.03
2834.3
2834.56
2834.93
2834.39
2832.58
2830.9
2829.84
2829.08
2828.53
2828.18
2828.17
2829.16
2831.88
2835.89
2839.14
2841.04
2842.18
2843.22
2844.34
2845.51
2846.66
2847.81
2848.95
2850.1
2851.35
2852.81
2854.55
2856.56
2858.82
2861.28
2863.9
2866.7
2869.69
2872.88
2876.27
2879.85
2883.68
2887.78
2892.18
2896.84
2901.76
2906.91
2912.31
2917.98
2923.92
2930.12
2936.57
2943.28
2950.23
2957.45
2964.91
2972.64
2980.62
2988.86
2997.35
3006.09
3015.09
3024.34
3033.85
3043.62
3053.64
3063.91
3074.43
3085.21
3096.23
3107.49
3118.99
3130.74
3142.73
3154.96
3167.42
3180.1
3193
3206.13
3219.48
3233.04
3246.81
3260.77
3274.91
3289.23
3303.72
3318.39
3333.22
3348.19
3363.28
3378.47
3393.72
3409
3424.28
3439.53
3454.67
3469.63
3484.3
3498.53
3512.24
3525.17
3537.12
3547.49
3555.8
3561.23
3563.3
3558.72
3541.11
3511.38
3445.19
2790
2790
2790
2790
2790
2790
2790
2790
2790.09
2791.92
2802.59
2821.72
2834.31
2838.24
2837.68
2836.1
2835.86
2836.46
2836.88
2836.37
2834.76
2833.36
2832.5
2831.94
2831.56
2831.35
2831.49
2832.47
2835.02
2838.71
2841.7
2843.42
2844.44
2845.38
2846.45
2847.62
2848.81
2850.01
2851.21
2852.42
2853.76
2855.31
2857.16
2859.3
2861.69
2864.27
2867.03
2869.98
2873.12
2876.46
2879.99
2883.72
2887.7
2891.97
2896.52
2901.33
2906.39
2911.69
2917.24
2923.06
2929.15
2935.49
2942.09
2948.94
2956.04
2963.4
2971.02
2978.9
2987.04
2995.44
3004.09
3013
3022.17
3031.61
3041.31
3051.27
3061.49
3071.97
3082.71
3093.71
3104.97
3116.48
3128.24
3140.27
3152.54
3165.07
3177.85
3190.88
3204.14
3217.65
3231.4
3245.4
3259.62
3274.08
3288.75
3303.64
3318.74
3334.07
3349.61
3365.36
3381.29
3397.41
3413.67
3430.09
3446.61
3463.25
3479.94
3496.66
3513.34
3529.9
3546.28
3562.3
3577.82
3592.53
3606.19
3618.1
3628.06
3634.45
3636.05
3624.21
3602.22
2790
2790
2790
2790
2790
2790
2790
2790
2790.14
2792.56
2804.57
2823.73
2835.32
2838.82
2838.35
2837.18
2837.32
2838.29
2838.72
2838.2
2836.81
2835.71
2835.07
2834.68
2834.42
2834.32
2834.52
2835.46
2837.81
2841.13
2843.81
2845.31
2846.19
2847.06
2848.13
2849.34
2850.61
2851.91
2853.2
2854.51
2855.94
2857.61
2859.58
2861.85
2864.37
2867.08
2869.97
2873.05
2876.33
2879.81
2883.48
2887.37
2891.5
2895.92
2900.62
2905.59
2910.79
2916.23
2921.93
2927.89
2934.12
2940.6
2947.34
2954.33
2961.57
2969.07
2976.83
2984.86
2993.14
3001.69
3010.51
3019.58
3028.91
3038.52
3048.39
3058.53
3068.94
3079.62
3090.57
3101.78
3113.26
3125
3137.01
3149.29
3161.83
3174.65
3187.72
3201.06
3214.65
3228.51
3242.63
3257.02
3271.66
3286.56
3301.71
3317.1
3332.75
3348.66
3364.83
3381.25
3397.92
3414.83
3431.97
3449.33
3466.9
3484.69
3502.66
3520.82
3539.1
3557.48
3575.9
3594.3
3612.58
3630.61
3648.2
3665.08
3680.91
3694.63
3705.98
3710.11
3714.73
2790
2790
2790
2790
2790
2790
2790
2790
2790.23
2793.51
2807.08
2826.01
2836.36
2839.37
2839.1
2838.28
2838.76
2840.03
2840.42
2839.9
2838.74
2837.94
2837.52
2837.26
2837.08
2837.03
2837.19
2838.03
2840.18
2843.14
2845.48
2846.75
2847.51
2848.33
2849.43
2850.73
2852.12
2853.53
2854.93
2856.35
2857.9
2859.71
2861.82
2864.22
2866.87
2869.7
2872.72
2875.92
2879.34
2882.95
2886.76
2890.78
2895.06
2899.63
2904.48
2909.59
2914.93
2920.51
2926.34
2932.45
2938.81
2945.43
2952.3
2959.42
2966.8
2974.44
2982.34
2990.5
2998.93
3007.63
3016.6
3025.82
3035.32
3045.08
3055.13
3065.45
3076.04
3086.9
3098.04
3109.46
3121.15
3133.12
3145.36
3157.88
3170.68
3183.76
3197.11
3210.74
3224.65
3238.84
3253.31
3268.06
3283.09
3298.39
3313.97
3329.83
3345.96
3362.39
3379.11
3396.13
3413.43
3431.02
3448.9
3467.06
3485.48
3504.21
3523.2
3542.47
3561.97
3581.71
3601.62
3621.72
3641.89
3662.09
3682.1
3701.76
3720.63
3738.57
3753.99
3765.65
3778.45
2790
2790
2790
2790
2790
2790