/*--------------------------------*- C++ -*----------------------------------*\
| =========                 |                                                 |
| \\      /  F ield         | OpenFOAM: The Open Source CFD Toolbox           |
|  \\    /   O peration     | Version:  2412                                  |
|   \\  /    A nd           | Website:  www.openfoam.com                      |
|    \\/     M anipulation  |                                                 |
\*---------------------------------------------------------------------------*/
FoamFile
{
    version     2.0;
    format      ascii;
    arch        "LSB;label=32;scalar=64";
    class       volVectorField;
    location    "0.048";
    object      U;
}
// * * * * * * * * * * * * * * * * * * * * * * * * * * * * * * * * * * * * * //

dimensions      [0 1 -1 0 0 0 0];

internalField   nonuniform List<vector> 
78650
(
(210 5.79741e-07 0)
(210 1.5654e-05 0)
(209.995 0.000958972 0)
(209.923 0.0224184 0)
(209.537 0.168718 0)
(208.802 0.504323 0)
(208.183 0.803077 0)
(208.067 0.902787 0)
(208.162 0.943026 0)
(208.888 0.786882 0)
(209.951 0.440888 0)
(210.899 0.251832 0)
(211.628 0.198334 0)
(212.271 0.261878 0)
(212.953 0.361694 0)
(213.63 0.470911 0)
(214.097 0.654834 0)
(214.265 0.931862 0)
(214.287 1.2327 0)
(214.142 1.59797 0)
(214.008 1.97185 0)
(214.012 2.32224 0)
(214.093 2.6804 0)
(214.249 3.03022 0)
(214.465 3.38865 0)
(214.68 3.76442 0)
(214.875 4.15997 0)
(215.064 4.57571 0)
(215.255 5.01294 0)
(215.445 5.47643 0)
(215.634 5.96731 0)
(215.819 6.48482 0)
(215.996 7.02788 0)
(216.166 7.59439 0)
(216.331 8.18254 0)
(216.495 8.79169 0)
(216.659 9.41999 0)
(216.826 10.0659 0)
(216.992 10.7296 0)
(217.158 11.4116 0)
(217.32 12.1128 0)
(217.478 12.8348 0)
(217.628 13.579 0)
(217.767 14.347 0)
(217.893 15.1396 0)
(218.005 15.9574 0)
(218.101 16.8006 0)
(218.179 17.67 0)
(218.239 18.5667 0)
(218.282 19.491 0)
(218.304 20.4439 0)
(218.31 21.4257 0)
(218.299 22.4365 0)
(218.274 23.4768 0)
(218.235 24.5475 0)
(218.182 25.6496 0)
(218.118 26.7842 0)
(218.043 27.9517 0)
(217.959 29.153 0)
(217.87 30.3886 0)
(217.777 31.6596 0)
(217.682 32.9669 0)
(217.588 34.3113 0)
(217.499 35.6936 0)
(217.416 37.1149 0)
(217.347 38.5769 0)
(217.291 40.0803 0)
(217.251 41.6258 0)
(217.239 43.2152 0)
(217.257 44.8494 0)
(217.304 46.5292 0)
(217.396 48.2581 0)
(217.532 50.036 0)
(217.715 51.8634 0)
(217.971 53.7419 0)
(218.289 55.6701 0)
(218.696 57.65 0)
(219.193 59.6811 0)
(219.785 61.7642 0)
(220.5 63.8995 0)
(221.328 66.0847 0)
(222.315 68.3147 0)
(223.441 70.5836 0)
(224.771 72.8854 0)
(226.282 75.2201 0)
(228.017 77.5833 0)
(229.982 79.9621 0)
(232.183 82.3465 0)
(234.683 84.7206 0)
(237.438 87.0991 0)
(240.577 89.4001 0)
(243.94 91.6566 0)
(247.77 93.7216 0)
(251.819 95.7816 0)
(256.437 97.6274 0)
(261.504 99.3667 0)
(266.986 100.839 0)
(272.547 102.067 0)
(278.479 103.055 0)
(285.697 103.576 0)
(292.576 103.736 0)
(299.517 103.703 0)
(306.266 103.37 0)
(313.619 102.586 0)
(321.764 101.205 0)
(329.384 99.4398 0)
(336.982 97.4671 0)
(344.549 95.0961 0)
(350.974 93.1414 0)
(357.469 90.8446 0)
(363.138 88.7647 0)
(368.952 86.0979 0)
(374.052 83.6793 0)
(379.158 80.925 0)
(383.245 77.8892 0)
(385.419 75.4025 0)
(387.496 72.6726 0)
(390.395 71.5754 0)
(396.138 70.5319 0)
(404.534 69.5258 0)
(407.75 73.5952 0)
(210 1.19091e-07 0)
(210 5.27367e-06 0)
(209.998 0.000440929 0)
(209.953 0.0128117 0)
(209.65 0.119403 0)
(208.937 0.423056 0)
(208.23 0.743242 0)
(208.035 0.875234 0)
(208.047 0.961077 0)
(208.633 0.864676 0)
(209.66 0.530962 0)
(210.628 0.318934 0)
(211.362 0.243751 0)
(211.986 0.299319 0)
(212.634 0.402239 0)
(213.318 0.513305 0)
(213.867 0.6761 0)
(214.105 0.942163 0)
(214.175 1.23298 0)
(214.084 1.58557 0)
(213.912 1.96734 0)
(213.861 2.32817 0)
(213.917 2.67796 0)
(214.034 3.0355 0)
(214.225 3.39407 0)
(214.429 3.76499 0)
(214.613 4.15403 0)
(214.786 4.56455 0)
(214.961 4.99704 0)
(215.137 5.45547 0)
(215.313 5.94098 0)
(215.483 6.45319 0)
(215.645 6.99114 0)
(215.799 7.55269 0)
(215.948 8.13626 0)
(216.094 8.74065 0)
(216.242 9.36321 0)
(216.391 10.0023 0)
(216.54 10.658 0)
(216.688 11.3312 0)
(216.832 12.0231 0)
(216.972 12.735 0)
(217.103 13.4687 0)
(217.223 14.2255 0)
(217.331 15.0064 0)
(217.423 15.8119 0)
(217.499 16.6422 0)
(217.558 17.498 0)
(217.597 18.3803 0)
(217.619 19.2896 0)
(217.619 20.2268 0)
(217.602 21.1924 0)
(217.568 22.1862 0)
(217.518 23.2091 0)
(217.452 24.2617 0)
(217.371 25.3449 0)
(217.278 26.4601 0)
(217.172 27.6077 0)
(217.055 28.7884 0)
(216.93 30.0029 0)
(216.799 31.2523 0)
(216.664 32.5374 0)
(216.527 33.8594 0)
(216.391 35.2188 0)
(216.258 36.6167 0)
(216.134 38.0549 0)
(216.02 39.5344 0)
(215.917 41.0557 0)
(215.836 42.6211 0)
(215.779 44.2313 0)
(215.745 45.887 0)
(215.751 47.5923 0)
(215.792 49.3472 0)
(215.873 51.1527 0)
(216.015 53.0116 0)
(216.211 54.922 0)
(216.485 56.8872 0)
(216.837 58.9067 0)
(217.274 60.982 0)
(217.819 63.1143 0)
(218.464 65.3015 0)
(219.253 67.5429 0)
(220.167 69.8369 0)
(221.263 72.1811 0)
(222.522 74.5697 0)
(223.992 76.993 0)
(225.681 79.4407 0)
(227.598 81.9096 0)
(229.796 84.3894 0)
(232.228 86.8832 0)
(235.012 89.3326 0)
(238.018 91.7635 0)
(241.487 94.0766 0)
(245.171 96.3958 0)
(249.352 98.5123 0)
(253.692 100.581 0)
(258.49 102.436 0)
(263.842 104.107 0)
(269.747 105.43 0)
(275.963 106.448 0)
(281.997 107.281 0)
(288.836 107.805 0)
(296.168 107.875 0)
(303.226 107.638 0)
(310.902 106.988 0)
(318.337 105.86 0)
(325.688 104.532 0)
(334.052 102.591 0)
(341.467 100.419 0)
(348.708 98.0956 0)
(355.595 95.7382 0)
(362.204 93.2033 0)
(368.072 90.937 0)
(373.872 88.3959 0)
(378.586 85.7193 0)
(381.683 83.1151 0)
(383.987 80.0416 0)
(385.992 78.1265 0)
(390.916 76.799 0)
(400.38 75.6195 0)
(404.443 80.5037 0)
(210 4.10934e-08 0)
(210 1.89577e-06 0)
(209.999 0.000175232 0)
(209.973 0.00663154 0)
(209.749 0.079307 0)
(209.094 0.341462 0)
(208.316 0.678464 0)
(208.014 0.85391 0)
(207.954 0.966215 0)
(208.39 0.920601 0)
(209.354 0.613246 0)
(210.339 0.381123 0)
(211.087 0.280087 0)
(211.7 0.325029 0)
(212.312 0.430813 0)
(212.982 0.54974 0)
(213.591 0.698601 0)
(213.927 0.946281 0)
(214.038 1.25301 0)
(214.013 1.58245 0)
(213.829 1.96192 0)
(213.716 2.32802 0)
(213.737 2.67842 0)
(213.825 3.03954 0)
(213.982 3.39673 0)
(214.169 3.76143 0)
(214.344 4.14325 0)
(214.502 4.5484 0)
(214.661 4.97617 0)
(214.822 5.42943 0)
(214.984 5.90956 0)
(215.141 6.41661 0)
(215.287 6.94961 0)
(215.426 7.50639 0)
(215.558 8.08547 0)
(215.687 8.68498 0)
(215.817 9.30143 0)
(215.949 9.93304 0)
(216.082 10.5801 0)
(216.212 11.2437 0)
(216.339 11.9253 0)
(216.46 12.6266 0)
(216.573 13.3492 0)
(216.674 14.0945 0)
(216.763 14.8636 0)
(216.835 15.6569 0)
(216.892 16.4747 0)
(216.93 17.3175 0)
(216.95 18.1865 0)
(216.95 19.0818 0)
(216.927 20.0048 0)
(216.887 20.9559 0)
(216.829 21.9349 0)
(216.752 22.9425 0)
(216.659 23.9795 0)
(216.549 25.0463 0)
(216.425 26.1449 0)
(216.286 27.2754 0)
(216.135 28.4386 0)
(215.974 29.6352 0)
(215.804 30.866 0)
(215.627 32.1321 0)
(215.446 33.4344 0)
(215.262 34.7738 0)
(215.08 36.151 0)
(214.902 37.568 0)
(214.729 39.0263 0)
(214.564 40.5254 0)
(214.416 42.0687 0)
(214.287 43.6563 0)
(214.176 45.2889 0)
(214.098 46.971 0)
(214.049 48.7023 0)
(214.033 50.4842 0)
(214.07 52.3201 0)
(214.151 54.2079 0)
(214.303 56.1511 0)
(214.521 58.1489 0)
(214.813 60.2032 0)
(215.202 62.3162 0)
(215.679 64.4868 0)
(216.283 66.716 0)
(216.994 69.0009 0)
(217.869 71.339 0)
(218.886 73.7237 0)
(220.097 76.1513 0)
(221.505 78.6202 0)
(223.116 81.1334 0)
(224.976 83.6822 0)
(227.053 86.2576 0)
(229.458 88.8125 0)
(232.083 91.3667 0)
(235.14 93.8721 0)
(238.411 96.4206 0)
(242.21 98.8504 0)
(246.27 101.238 0)
(250.857 103.349 0)
(255.744 105.326 0)
(261.021 107.081 0)
(266.511 108.585 0)
(273.055 109.965 0)
(279.456 110.827 0)
(286.745 111.391 0)
(293.499 111.54 0)
(300.729 111.485 0)
(308.548 110.887 0)
(315.817 109.968 0)
(323.408 108.838 0)
(331.51 107.076 0)
(338.403 105.369 0)
(346.165 103.156 0)
(353.369 100.834 0)
(359.742 98.7059 0)
(366.464 96.0064 0)
(371.434 93.5664 0)
(375.329 90.7766 0)
(378.005 87.8594 0)
(380.597 85.706 0)
(386.004 83.9545 0)
(396.282 82.5032 0)
(400.227 87.9394 0)
(210 1.05127e-08 0)
(210 4.3026e-07 0)
(210 5.99278e-05 0)
(209.985 0.0030888 0)
(209.831 0.0485785 0)
(209.261 0.260935 0)
(208.433 0.60171 0)
(208.001 0.829917 0)
(207.879 0.943218 0)
(208.172 0.955887 0)
(209.046 0.700575 0)
(210.04 0.453024 0)
(210.805 0.321061 0)
(211.414 0.355343 0)
(211.993 0.465244 0)
(212.634 0.595411 0)
(213.276 0.738388 0)
(213.712 0.9666 0)
(213.877 1.27203 0)
(213.911 1.57869 0)
(213.753 1.94458 0)
(213.582 2.31846 0)
(213.551 2.6757 0)
(213.615 3.03033 0)
(213.734 3.39041 0)
(213.899 3.75318 0)
(214.063 4.12828 0)
(214.208 4.52719 0)
(214.35 4.95026 0)
(214.497 5.39881 0)
(214.645 5.87397 0)
(214.787 6.37587 0)
(214.919 6.90359 0)
(215.042 7.45517 0)
(215.157 8.02936 0)
(215.268 8.62357 0)
(215.381 9.2335 0)
(215.496 9.85729 0)
(215.611 10.4954 0)
(215.723 11.149 0)
(215.832 11.8202 0)
(215.934 12.5106 0)
(216.029 13.2218 0)
(216.111 13.9552 0)
(216.18 14.7118 0)
(216.234 15.4922 0)
(216.271 16.2965 0)
(216.289 17.1252 0)
(216.289 17.9792 0)
(216.268 18.859 0)
(216.225 19.7658 0)
(216.163 20.7 0)
(216.081 21.6615 0)
(215.981 22.6509 0)
(215.862 23.6697 0)
(215.726 24.7167 0)
(215.573 25.7952 0)
(215.405 26.9049 0)
(215.223 28.0467 0)
(215.028 29.2212 0)
(214.823 30.4293 0)
(214.608 31.6722 0)
(214.386 32.9508 0)
(214.16 34.2658 0)
(213.93 35.6179 0)
(213.702 37.0088 0)
(213.475 38.4411 0)
(213.253 39.9135 0)
(213.042 41.4296 0)
(212.843 42.9902 0)
(212.659 44.5951 0)
(212.502 46.2492 0)
(212.366 47.9525 0)
(212.257 49.7064 0)
(212.192 51.5154 0)
(212.16 53.3774 0)
(212.19 55.2968 0)
(212.276 57.2726 0)
(212.425 59.3074 0)
(212.658 61.4046 0)
(212.966 63.5635 0)
(213.386 65.7865 0)
(213.898 68.0708 0)
(214.558 70.4179 0)
(215.343 72.824 0)
(216.304 75.2896 0)
(217.442 77.8114 0)
(218.77 80.3844 0)
(220.33 82.9963 0)
(222.099 85.6395 0)
(224.172 88.2945 0)
(226.457 90.9867 0)
(229.148 93.6721 0)
(232.04 96.3744 0)
(235.409 98.9455 0)
(238.967 101.471 0)
(243.02 103.823 0)
(247.332 106.143 0)
(252.173 108.323 0)
(257.593 110.365 0)
(263.352 112.046 0)
(269.48 113.466 0)
(276.148 114.674 0)
(283.469 115.442 0)
(290.431 115.788 0)
(298.383 115.872 0)
(306.41 115.311 0)
(313.61 114.665 0)
(322.244 113.327 0)
(329.868 111.77 0)
(337.991 109.771 0)
(345.988 107.389 0)
(352.811 105.374 0)
(360.531 102.635 0)
(366.282 100.408 0)
(371.038 97.6734 0)
(374.154 94.7393 0)
(376.942 92.601 0)
(382.695 90.5356 0)
(393.266 88.8484 0)
(397.606 94.062 0)
(210 2.72911e-09 0)
(210 6.17876e-08 0)
(210 1.64358e-05 0)
(209.993 0.00125779 0)
(209.895 0.0270256 0)
(209.429 0.187003 0)
(208.593 0.51687 0)
(208.019 0.789657 0)
(207.813 0.912623 0)
(207.988 0.973852 0)
(208.739 0.783709 0)
(209.715 0.519068 0)
(210.504 0.350806 0)
(211.123 0.376913 0)
(211.676 0.493713 0)
(212.277 0.638231 0)
(212.925 0.784172 0)
(213.446 0.990164 0)
(213.687 1.28196 0)
(213.767 1.58004 0)
(213.669 1.92785 0)
(213.461 2.30324 0)
(213.364 2.66373 0)
(213.396 3.01418 0)
(213.485 3.37663 0)
(213.617 3.737 0)
(213.768 4.10525 0)
(213.901 4.49801 0)
(214.028 4.91664 0)
(214.159 5.36066 0)
(214.292 5.83109 0)
(214.42 6.32812 0)
(214.538 6.85079 0)
(214.646 7.39737 0)
(214.743 7.96676 0)
(214.836 8.55539 0)
(214.931 9.1584 0)
(215.028 9.7738 0)
(215.125 10.4021 0)
(215.22 11.045 0)
(215.31 11.7047 0)
(215.394 12.3832 0)
(215.469 13.0822 0)
(215.533 13.8029 0)
(215.583 14.5464 0)
(215.617 15.3133 0)
(215.634 16.1037 0)
(215.632 16.9181 0)
(215.612 17.7573 0)
(215.57 18.6218 0)
(215.504 19.5129 0)
(215.42 20.4309 0)
(215.314 21.3766 0)
(215.188 22.349 0)
(215.042 23.3508 0)
(214.88 24.3785 0)
(214.697 25.4396 0)
(214.497 26.5309 0)
(214.282 27.6535 0)
(214.052 28.8084 0)
(213.809 29.9963 0)
(213.556 31.2181 0)
(213.292 32.4749 0)
(213.021 33.7678 0)
(212.744 35.0972 0)
(212.466 36.4646 0)
(212.183 37.8742 0)
(211.903 39.3214 0)
(211.63 40.8111 0)
(211.364 42.3458 0)
(211.108 43.9241 0)
(210.874 45.5511 0)
(210.655 47.2273 0)
(210.458 48.9526 0)
(210.295 50.7332 0)
(210.16 52.5662 0)
(210.077 54.4569 0)
(210.04 56.4036 0)
(210.059 58.4093 0)
(210.149 60.4777 0)
(210.305 62.6079 0)
(210.557 64.8039 0)
(210.889 67.0631 0)
(211.35 69.3896 0)
(211.917 71.7789 0)
(212.639 74.2316 0)
(213.516 76.7437 0)
(214.563 79.315 0)
(215.816 81.944 0)
(217.256 84.6284 0)
(218.972 87.3559 0)
(220.884 90.1343 0)
(223.162 92.9279 0)
(225.626 95.7485 0)
(228.555 98.5105 0)
(231.694 101.288 0)
(235.389 103.98 0)
(239.384 106.659 0)
(243.848 109.159 0)
(248.617 111.517 0)
(253.86 113.727 0)
(259.684 115.648 0)
(265.692 117.205 0)
(272.568 118.636 0)
(279.628 119.486 0)
(286.618 120.118 0)
(294.725 120.361 0)
(302.121 120.134 0)
(309.994 119.62 0)
(318.506 118.555 0)
(325.974 117.387 0)
(334.631 115.5 0)
(342.086 113.662 0)
(350.384 111.167 0)
(357.148 108.729 0)
(362.668 105.828 0)
(366.429 102.57 0)
(369.22 100.222 0)
(374.932 98.7254 0)
(386.663 97.0421 0)
(390.985 103.407 0)
(210 3.17857e-10 0)
(210 -6.472e-09 0)
(210 3.06848e-06 0)
(209.997 0.000435152 0)
(209.94 0.0133536 0)
(209.587 0.123284 0)
(208.782 0.420618 0)
(208.074 0.732124 0)
(207.758 0.878456 0)
(207.848 0.98477 0)
(208.437 0.84887 0)
(209.369 0.582291 0)
(210.189 0.392446 0)
(210.832 0.415963 0)
(211.369 0.53549 0)
(211.923 0.688072 0)
(212.548 0.837526 0)
(213.124 1.02132 0)
(213.461 1.28485 0)
(213.58 1.59156 0)
(213.557 1.90644 0)
(213.349 2.27164 0)
(213.185 2.63577 0)
(213.165 2.99282 0)
(213.231 3.34886 0)
(213.327 3.7139 0)
(213.459 4.07962 0)
(213.581 4.4666 0)
(213.693 4.88051 0)
(213.807 5.31985 0)
(213.925 5.7852 0)
(214.039 6.27666 0)
(214.143 6.79346 0)
(214.234 7.33444 0)
(214.313 7.89831 0)
(214.389 8.48046 0)
(214.466 9.0758 0)
(214.544 9.6821 0)
(214.623 10.2999 0)
(214.7 10.9313 0)
(214.772 11.579 0)
(214.837 12.2452 0)
(214.893 12.9314 0)
(214.937 13.6389 0)
(214.967 14.3687 0)
(214.982 15.1214 0)
(214.979 15.8971 0)
(214.957 16.6963 0)
(214.917 17.5194 0)
(214.854 18.3674 0)
(214.768 19.2412 0)
(214.662 20.1413 0)
(214.532 21.0685 0)
(214.384 22.0195 0)
(214.213 23.0014 0)
(214.022 24.0117 0)
(213.814 25.0503 0)
(213.586 26.119 0)
(213.341 27.2186 0)
(213.08 28.3497 0)
(212.804 29.5132 0)
(212.514 30.7099 0)
(212.212 31.941 0)
(211.9 33.2074 0)
(211.58 34.5101 0)
(211.253 35.8508 0)
(210.923 37.2292 0)
(210.59 38.6478 0)
(210.259 40.1076 0)
(209.928 41.6136 0)
(209.605 43.1607 0)
(209.298 44.7539 0)
(208.997 46.3985 0)
(208.718 48.0908 0)
(208.462 49.8389 0)
(208.225 51.64 0)
(208.033 53.4995 0)
(207.874 55.4159 0)
(207.763 57.3923 0)
(207.711 59.4334 0)
(207.714 61.5388 0)
(207.799 63.714 0)
(207.948 65.9567 0)
(208.212 68.2728 0)
(208.564 70.6571 0)
(209.055 73.1139 0)
(209.682 75.6407 0)
(210.463 78.2373 0)
(211.429 80.9008 0)
(212.571 83.6273 0)
(213.962 86.413 0)
(215.533 89.2623 0)
(217.435 92.1452 0)
(219.516 95.0571 0)
(222.035 97.9434 0)
(224.742 100.86 0)
(227.954 103.737 0)
(231.399 106.64 0)
(235.354 109.452 0)
(239.706 112.16 0)
(244.487 114.705 0)
(249.744 117.07 0)
(255.583 119.235 0)
(261.74 121.039 0)
(268.799 122.727 0)
(275.681 123.798 0)
(283.529 124.71 0)
(291.665 125.012 0)
(299.185 125.059 0)
(308.27 124.511 0)
(315.913 123.811 0)
(324.014 122.65 0)
(332.191 121.271 0)
(340.578 119.212 0)
(347.742 117.311 0)
(355.764 114.07 0)
(360.501 110.862 0)
(364.162 107.471 0)
(369.468 106.026 0)
(381.817 104.578 0)
(385.782 112.592 0)
(210 1.89874e-11 0)
(210 -8.54313e-09 0)
(210 -8.8214e-09 0)
(209.999 0.000119396 0)
(209.97 0.00571652 0)
(209.724 0.0734571 0)
(208.999 0.321688 0)
(208.184 0.657012 0)
(207.724 0.85874 0)
(207.742 0.952894 0)
(208.147 0.884482 0)
(209.004 0.643891 0)
(209.861 0.447122 0)
(210.537 0.461621 0)
(211.063 0.574319 0)
(211.566 0.727268 0)
(212.149 0.87977 0)
(212.749 1.04804 0)
(213.181 1.2862 0)
(213.356 1.58718 0)
(213.395 1.87873 0)
(213.235 2.22544 0)
(213.019 2.59544 0)
(212.93 2.95867 0)
(212.966 3.31142 0)
(213.033 3.67837 0)
(213.137 4.04206 0)
(213.248 4.4228 0)
(213.346 4.83245 0)
(213.445 5.26854 0)
(213.546 5.73031 0)
(213.644 6.21719 0)
(213.734 6.72858 0)
(213.809 7.2642 0)
(213.87 7.82218 0)
(213.928 8.39723 0)
(213.985 8.98437 0)
(214.045 9.58079 0)
(214.106 10.1872 0)
(214.164 10.8062 0)
(214.218 11.4409 0)
(214.263 12.0937 0)
(214.3 12.7663 0)
(214.325 13.4598 0)
(214.335 14.1751 0)
(214.33 14.9129 0)
(214.307 15.6732 0)
(214.265 16.4566 0)
(214.204 17.2635 0)
(214.119 18.0951 0)
(214.013 18.9515 0)
(213.885 19.8318 0)
(213.732 20.7403 0)
(213.556 21.6765 0)
(213.36 22.6388 0)
(213.144 23.6284 0)
(212.906 24.6469 0)
(212.649 25.6951 0)
(212.372 26.7737 0)
(212.077 27.8833 0)
(211.765 29.0246 0)
(211.438 30.1985 0)
(211.097 31.4059 0)
(210.743 32.6479 0)
(210.377 33.9255 0)
(210.004 35.2397 0)
(209.622 36.592 0)
(209.234 37.9837 0)
(208.843 39.4168 0)
(208.453 40.891 0)
(208.066 42.4079 0)
(207.687 43.97 0)
(207.305 45.5874 0)
(206.947 47.2443 0)
(206.602 48.9571 0)
(206.271 50.7236 0)
(205.976 52.5481 0)
(205.705 54.4297 0)
(205.476 56.3695 0)
(205.295 58.3734 0)
(205.16 60.4407 0)
(205.094 62.5776 0)
(205.081 64.7817 0)
(205.168 67.0604 0)
(205.326 69.4089 0)
(205.605 71.8345 0)
(205.997 74.3338 0)
(206.523 76.9078 0)
(207.211 79.5581 0)
(208.05 82.2865 0)
(209.106 85.0925 0)
(210.324 87.9684 0)
(211.845 90.8957 0)
(213.534 93.8801 0)
(215.627 96.913 0)
(217.898 100.031 0)
(220.665 103.154 0)
(223.663 106.286 0)
(227.176 109.312 0)
(231.015 112.277 0)
(235.289 115.162 0)
(240.028 117.901 0)
(245.154 120.505 0)
(250.885 122.88 0)
(257.113 125.011 0)
(263.983 126.788 0)
(270.867 128.214 0)
(279.004 129.447 0)
(286.617 129.992 0)
(295.117 130.288 0)
(304.047 130.007 0)
(312.744 129.178 0)
(321.423 128.155 0)
(330.305 126.601 0)
(337.928 125.005 0)
(345.534 122.58 0)
(350.99 119.902 0)
(355.716 117.055 0)
(362.55 114.602 0)
(375.688 112.639 0)
(380.266 119.952 0)
(210 -2.84407e-11 0)
(210 -4.10039e-09 0)
(210 -2.77605e-07 0)
(210 2.17171e-05 0)
(209.986 0.00204593 0)
(209.833 0.0386265 0)
(209.228 0.226987 0)
(208.34 0.564137 0)
(207.724 0.812914 0)
(207.664 0.899503 0)
(207.89 0.891837 0)
(208.644 0.726023 0)
(209.527 0.526633 0)
(210.232 0.513332 0)
(210.752 0.608899 0)
(211.21 0.75711 0)
(211.74 0.913858 0)
(212.335 1.07627 0)
(212.838 1.28964 0)
(213.094 1.56772 0)
(213.173 1.86051 0)
(213.091 2.18438 0)
(212.865 2.54922 0)
(212.705 2.91709 0)
(212.687 3.27822 0)
(212.734 3.63947 0)
(212.805 4.00862 0)
(212.901 4.38507 0)
(212.987 4.78842 0)
(213.07 5.21872 0)
(213.154 5.67462 0)
(213.237 6.15507 0)
(213.312 6.65973 0)
(213.369 7.18907 0)
(213.413 7.73971 0)
(213.452 8.30679 0)
(213.49 8.88463 0)
(213.531 9.47002 0)
(213.573 10.0639 0)
(213.613 10.6695 0)
(213.648 11.2904 0)
(213.674 11.9292 0)
(213.69 12.5874 0)
(213.695 13.2663 0)
(213.686 13.9665 0)
(213.661 14.6887 0)
(213.618 15.433 0)
(213.556 16.1998 0)
(213.474 16.99 0)
(213.368 17.8037 0)
(213.245 18.6377 0)
(213.091 19.5024 0)
(212.915 20.3915 0)
(212.718 21.3057 0)
(212.498 22.2464 0)
(212.256 23.2143 0)
(211.992 24.2102 0)
(211.707 25.2347 0)
(211.402 26.2887 0)
(211.077 27.3729 0)
(210.734 28.4881 0)
(210.373 29.6349 0)
(209.996 30.8146 0)
(209.603 32.0281 0)
(209.198 33.2764 0)
(208.78 34.5605 0)
(208.352 35.8815 0)
(207.915 37.2408 0)
(207.471 38.6402 0)
(207.023 40.0813 0)
(206.573 41.5653 0)
(206.123 43.0952 0)
(205.679 44.6686 0)
(205.242 46.2914 0)
(204.811 47.9677 0)
(204.388 49.6978 0)
(203.994 51.4809 0)
(203.611 53.325 0)
(203.268 55.2264 0)
(202.958 57.194 0)
(202.685 59.2254 0)
(202.468 61.3283 0)
(202.292 63.5005 0)
(202.201 65.7514 0)
(202.164 68.0751 0)
(202.234 70.4812 0)
(202.396 72.9658 0)
(202.677 75.5322 0)
(203.098 78.1825 0)
(203.656 80.9155 0)
(204.407 83.7309 0)
(205.306 86.6234 0)
(206.476 89.5936 0)
(207.794 92.6436 0)
(209.477 95.762 0)
(211.315 98.945 0)
(213.606 102.136 0)
(216.082 105.354 0)
(219.059 108.553 0)
(222.338 111.782 0)
(226.113 115 0)
(230.375 118.145 0)
(235.032 121.23 0)
(240.266 124.066 0)
(245.972 126.775 0)
(252.31 129.24 0)
(259.069 131.231 0)
(266.35 132.99 0)
(274.406 134.33 0)
(281.715 135.202 0)
(291.159 135.821 0)
(299.251 135.985 0)
(309.194 135.373 0)
(317.638 134.57 0)
(326.75 133.134 0)
(334.892 131.169 0)
(340.614 128.852 0)
(345.27 126.16 0)
(351.519 124.318 0)
(365.457 122.315 0)
(369.596 130.875 0)
(210 8.57968e-12 0)
(210 -1.44385e-09 0)
(210 -1.28035e-07 0)
(210 -2.02209e-07 0)
(209.995 0.000574715 0)
(209.909 0.0174971 0)
(209.449 0.144942 0)
(208.551 0.456943 0)
(207.778 0.739094 0)
(207.618 0.845212 0)
(207.677 0.90028 0)
(208.293 0.809923 0)
(209.174 0.600283 0)
(209.907 0.550262 0)
(210.432 0.628695 0)
(210.856 0.772468 0)
(211.33 0.933788 0)
(211.896 1.09334 0)
(212.437 1.28413 0)
(212.787 1.53383 0)
(212.907 1.82887 0)
(212.908 2.12623 0)
(212.725 2.47739 0)
(212.505 2.8545 0)
(212.415 3.22613 0)
(212.432 3.58693 0)
(212.474 3.9603 0)
(212.547 4.33499 0)
(212.621 4.73313 0)
(212.687 5.15914 0)
(212.753 5.61102 0)
(212.82 6.08637 0)
(212.878 6.58481 0)
(212.919 7.10675 0)
(212.946 7.64845 0)
(212.965 8.20694 0)
(212.982 8.77362 0)
(213.003 9.34687 0)
(213.027 9.92741 0)
(213.049 10.5189 0)
(213.065 11.1253 0)
(213.071 11.7492 0)
(213.068 12.3924 0)
(213.053 13.0559 0)
(213.024 13.7404 0)
(212.978 14.4462 0)
(212.914 15.174 0)
(212.833 15.9238 0)
(212.728 16.6966 0)
(212.607 17.4874 0)
(212.457 18.3083 0)
(212.283 19.1518 0)
(212.086 20.0205 0)
(211.864 20.9146 0)
(211.619 21.8346 0)
(211.351 22.7811 0)
(211.06 23.7548 0)
(210.747 24.7566 0)
(210.411 25.7875 0)
(210.054 26.848 0)
(209.677 27.9388 0)
(209.281 29.0606 0)
(208.866 30.2144 0)
(208.434 31.4013 0)
(207.986 32.6221 0)
(207.523 33.8779 0)
(207.048 35.1697 0)
(206.56 36.4991 0)
(206.062 37.8675 0)
(205.556 39.2761 0)
(205.045 40.7264 0)
(204.531 42.2202 0)
(204.015 43.7603 0)
(203.5 45.3484 0)
(202.99 46.9856 0)
(202.489 48.6728 0)
(202.004 50.4145 0)
(201.513 52.2234 0)
(201.064 54.0776 0)
(200.636 55.9993 0)
(200.24 57.9842 0)
(199.888 60.0398 0)
(199.568 62.1637 0)
(199.319 64.3656 0)
(199.11 66.6393 0)
(198.994 68.9967 0)
(198.949 71.434 0)
(199.005 73.9565 0)
(199.176 76.5671 0)
(199.465 79.2674 0)
(199.917 82.0634 0)
(200.493 84.9511 0)
(201.307 87.9349 0)
(202.251 91.0073 0)
(203.525 94.1711 0)
(204.933 97.4181 0)
(206.763 100.726 0)
(208.769 104.1 0)
(211.273 107.508 0)
(214.037 110.971 0)
(217.289 114.433 0)
(220.959 117.863 0)
(225.04 121.268 0)
(229.712 124.511 0)
(234.757 127.669 0)
(240.451 130.614 0)
(246.812 133.384 0)
(253.433 135.636 0)
(261.255 137.905 0)
(268.895 139.3 0)
(277.349 140.522 0)
(286.014 141.37 0)
(294.878 141.71 0)
(304.565 141.47 0)
(313.543 140.854 0)
(324.221 139.01 0)
(331.385 136.522 0)
(337.466 133.207 0)
(343.818 131.737 0)
(358.098 130.431 0)
(361.485 140.826 0)
(210 3.7283e-12 0)
(210 -4.36677e-10 0)
(210 -4.42808e-08 0)
(210 -2.13088e-06 0)
(209.998 0.000105387 0)
(209.957 0.00657188 0)
(209.642 0.0817544 0)
(208.808 0.342018 0)
(207.893 0.6437 0)
(207.585 0.805701 0)
(207.52 0.89865 0)
(207.96 0.8636 0)
(208.804 0.662219 0)
(209.567 0.586405 0)
(210.105 0.646139 0)
(210.504 0.779708 0)
(210.928 0.940928 0)
(211.45 1.09966 0)
(211.994 1.27785 0)
(212.415 1.50688 0)
(212.605 1.79131 0)
(212.658 2.08748 0)
(212.558 2.42624 0)
(212.324 2.80419 0)
(212.157 3.18167 0)
(212.12 3.54964 0)
(212.143 3.91779 0)
(212.188 4.29339 0)
(212.247 4.68502 0)
(212.298 5.10304 0)
(212.346 5.54659 0)
(212.394 6.01429 0)
(212.434 6.50536 0)
(212.459 7.01664 0)
(212.468 7.55049 0)
(212.467 8.09745 0)
(212.465 8.65315 0)
(212.465 9.21267 0)
(212.469 9.77896 0)
(212.472 10.3553 0)
(212.469 10.9461 0)
(212.457 11.5545 0)
(212.433 12.182 0)
(212.398 12.8295 0)
(212.349 13.4976 0)
(212.283 14.1868 0)
(212.199 14.8972 0)
(212.098 15.6287 0)
(211.975 16.3808 0)
(211.829 17.1574 0)
(211.66 17.9558 0)
(211.466 18.7787 0)
(211.246 19.6261 0)
(211.002 20.4984 0)
(210.733 21.3958 0)
(210.441 22.3188 0)
(210.125 23.2683 0)
(209.785 24.245 0)
(209.422 25.2499 0)
(209.036 26.2835 0)
(208.629 27.3465 0)
(208.201 28.4397 0)
(207.753 29.5638 0)
(207.285 30.72 0)
(206.8 31.9092 0)
(206.297 33.1325 0)
(205.778 34.3908 0)
(205.246 35.6854 0)
(204.7 37.0178 0)
(204.142 38.3898 0)
(203.574 39.8026 0)
(202.998 41.2579 0)
(202.418 42.7573 0)
(201.835 44.3031 0)
(201.249 45.8979 0)
(200.665 47.5446 0)
(200.084 49.2462 0)
(199.513 50.9994 0)
(198.96 52.8118 0)
(198.409 54.6923 0)
(197.891 56.6302 0)
(197.403 58.6378 0)
(196.939 60.7161 0)
(196.531 62.8741 0)
(196.15 65.1065 0)
(195.848 67.4245 0)
(195.598 69.8242 0)
(195.433 72.3127 0)
(195.364 74.8933 0)
(195.396 77.5672 0)
(195.567 80.3395 0)
(195.849 83.2052 0)
(196.338 86.1766 0)
(196.938 89.2454 0)
(197.827 92.4216 0)
(198.83 95.6833 0)
(200.221 99.0312 0)
(201.755 102.469 0)
(203.749 105.997 0)
(205.959 109.618 0)
(208.659 113.274 0)
(211.723 116.945 0)
(215.234 120.625 0)
(219.313 124.235 0)
(223.767 127.838 0)
(228.906 131.218 0)
(234.449 134.535 0)
(240.781 137.648 0)
(247.559 140.325 0)
(255.382 142.809 0)
(262.731 144.615 0)
(272.318 146.438 0)
(280.714 147.494 0)
(290.376 148.122 0)
(300.099 148.45 0)
(309.841 147.939 0)
(318.039 146.489 0)
(325.323 143.736 0)
(332.44 141.973 0)
(347.31 140.485 0)
(351.237 150.126 0)
(210 3.48402e-12 0)
(210 -1.09281e-10 0)
(210 -1.24946e-08 0)
(210 -9.59033e-07 0)
(209.999 -1.14492e-06 0)
(209.982 0.00191412 0)
(209.791 0.0396782 0)
(209.089 0.23198 0)
(208.089 0.539583 0)
(207.572 0.76624 0)
(207.413 0.847623 0)
(207.666 0.877587 0)
(208.432 0.721216 0)
(209.216 0.627835 0)
(209.77 0.652569 0)
(210.155 0.767026 0)
(210.536 0.924397 0)
(211.009 1.08644 0)
(211.533 1.26236 0)
(211.994 1.47766 0)
(212.27 1.74667 0)
(212.364 2.05757 0)
(212.357 2.37187 0)
(212.166 2.73989 0)
(211.932 3.12686 0)
(211.819 3.50205 0)
(211.812 3.86787 0)
(211.831 4.2446 0)
(211.871 4.62862 0)
(211.905 5.03777 0)
(211.935 5.47327 0)
(211.961 5.93412 0)
(211.983 6.41512 0)
(211.992 6.91783 0)
(211.981 7.44119 0)
(211.959 7.97684 0)
(211.939 8.51753 0)
(211.92 9.06458 0)
(211.904 9.61496 0)
(211.888 10.1754 0)
(211.866 10.7501 0)
(211.834 11.3421 0)
(211.791 11.9534 0)
(211.736 12.5845 0)
(211.667 13.236 0)
(211.58 13.9087 0)
(211.478 14.5984 0)
(211.355 15.3126 0)
(211.211 16.0475 0)
(211.045 16.8035 0)
(210.856 17.5822 0)
(210.641 18.3843 0)
(210.399 19.2104 0)
(210.132 20.0607 0)
(209.839 20.9354 0)
(209.522 21.8351 0)
(209.18 22.7606 0)
(208.814 23.7127 0)
(208.422 24.6923 0)
(208.007 25.7 0)
(207.568 26.7365 0)
(207.107 27.8024 0)
(206.624 28.8985 0)
(206.119 30.0258 0)
(205.594 31.1853 0)
(205.049 32.3779 0)
(204.487 33.6044 0)
(203.908 34.8662 0)
(203.312 36.1647 0)
(202.701 37.5014 0)
(202.077 38.8778 0)
(201.442 40.2952 0)
(200.798 41.7556 0)
(200.146 43.261 0)
(199.489 44.8135 0)
(198.827 46.4155 0)
(198.165 48.0694 0)
(197.504 49.7789 0)
(196.847 51.5459 0)
(196.203 53.3689 0)
(195.579 55.2538 0)
(194.965 57.209 0)
(194.37 59.232 0)
(193.822 61.327 0)
(193.288 63.4986 0)
(192.826 65.7544 0)
(192.394 68.0923 0)
(192.035 70.5188 0)
(191.748 73.0386 0)
(191.544 75.6539 0)
(191.452 78.3732 0)
(191.45 81.1952 0)
(191.618 84.1351 0)
(191.879 87.1787 0)
(192.393 90.3435 0)
(193.004 93.609 0)
(193.963 97.0024 0)
(195.035 100.51 0)
(196.533 104.132 0)
(198.206 107.841 0)
(200.35 111.611 0)
(202.795 115.441 0)
(205.701 119.323 0)
(209.108 123.218 0)
(212.904 127.165 0)
(217.417 131.008 0)
(222.301 134.833 0)
(227.901 138.385 0)
(234.081 141.914 0)
(240.943 145.093 0)
(248.676 147.815 0)
(256.554 150.066 0)
(266.219 152.358 0)
(274.938 153.642 0)
(284.795 154.709 0)
(294.986 155.012 0)
(303.125 154.479 0)
(310.724 152.426 0)
(317.803 151.358 0)
(333.674 150.389 0)
(336.87 161.848 0)
(210 -4.91397e-13 0)
(210 -3.8197e-11 0)
(210 -3.06209e-09 0)
(210 -2.90722e-07 0)
(210 -1.0422e-05 0)
(209.994 0.000353969 0)
(209.892 0.0158841 0)
(209.361 0.140687 0)
(208.347 0.424818 0)
(207.616 0.701075 0)
(207.332 0.780551 0)
(207.443 0.872673 0)
(208.079 0.784781 0)
(208.856 0.664206 0)
(209.427 0.639902 0)
(209.807 0.740509 0)
(210.159 0.903529 0)
(210.588 1.07981 0)
(211.076 1.26111 0)
(211.544 1.46809 0)
(211.885 1.72402 0)
(212.044 2.02648 0)
(212.092 2.3423 0)
(211.991 2.69342 0)
(211.734 3.07738 0)
(211.539 3.45284 0)
(211.472 3.81946 0)
(211.472 4.18768 0)
(211.489 4.57048 0)
(211.508 4.97083 0)
(211.52 5.39472 0)
(211.523 5.84567 0)
(211.523 6.31857 0)
(211.513 6.81166 0)
(211.485 7.32217 0)
(211.445 7.84439 0)
(211.403 8.37171 0)
(211.367 8.90186 0)
(211.332 9.43861 0)
(211.296 9.98269 0)
(211.255 10.5407 0)
(211.204 11.1161 0)
(211.142 11.7107 0)
(211.066 12.325 0)
(210.978 12.9572 0)
(210.873 13.6107 0)
(210.749 14.2856 0)
(210.606 14.9801 0)
(210.443 15.6948 0)
(210.258 16.4305 0)
(210.048 17.188 0)
(209.812 17.9683 0)
(209.549 18.772 0)
(209.26 19.5994 0)
(208.945 20.4506 0)
(208.604 21.3261 0)
(208.238 22.2263 0)
(207.847 23.1522 0)
(207.429 24.1045 0)
(206.987 25.0839 0)
(206.52 26.0912 0)
(206.028 27.1269 0)
(205.514 28.1917 0)
(204.977 29.2866 0)
(204.417 30.4126 0)
(203.836 31.5705 0)
(203.234 32.7614 0)
(202.614 33.9863 0)
(201.974 35.2465 0)
(201.317 36.5437 0)
(200.643 37.8792 0)
(199.954 39.2547 0)
(199.251 40.6716 0)
(198.537 42.132 0)
(197.813 43.6382 0)
(197.08 45.1924 0)
(196.34 46.7971 0)
(195.594 48.4549 0)
(194.848 50.1683 0)
(194.105 51.9406 0)
(193.367 53.7749 0)
(192.639 55.6723 0)
(191.929 57.636 0)
(191.241 59.6736 0)
(190.546 61.7959 0)
(189.923 63.9896 0)
(189.307 66.2707 0)
(188.761 68.6409 0)
(188.26 71.1068 0)
(187.83 73.6693 0)
(187.487 76.3366 0)
(187.222 79.1065 0)
(187.098 81.9951 0)
(187.05 84.989 0)
(187.22 88.1157 0)
(187.463 91.3522 0)
(188.009 94.7345 0)
(188.638 98.2309 0)
(189.652 101.862 0)
(190.805 105.597 0)
(192.406 109.449 0)
(194.257 113.412 0)
(196.571 117.484 0)
(199.314 121.638 0)
(202.475 125.866 0)
(206.291 130.069 0)
(210.474 134.331 0)
(215.47 138.425 0)
(220.908 142.449 0)
(227.14 146.314 0)
(234.043 149.96 0)
(241.425 152.896 0)
(250.001 156.013 0)
(259.505 158.586 0)
(268.586 160.12 0)
(279.84 161.591 0)
(290.505 161.774 0)
(299.925 160.307 0)
(307.739 159.093 0)
(323.214 158.555 0)
(326.154 169.795 0)
(210 -1.75772e-12 0)
(210 -1.62454e-11 0)
(210 -6.81348e-10 0)
(210 -7.49809e-08 0)
(210 -5.03702e-06 0)