/*--------------------------------*- C++ -*----------------------------------*\
| =========                 |                                                 |
| \\      /  F ield         | OpenFOAM: The Open Source CFD Toolbox           |
|  \\    /   O peration     | Version:  2412                                  |
|   \\  /    A nd           | Website:  www.openfoam.com                      |
|    \\/     M anipulation  |                                                 |
\*---------------------------------------------------------------------------*/
FoamFile
{
    version     2.0;
    format      ascii;
    arch        "LSB;label=32;scalar=64";
    class       volScalarField;
    location    "0.097";
    object      rho;
}
// * * * * * * * * * * * * * * * * * * * * * * * * * * * * * * * * * * * * * //

dimensions      [1 -3 0 0 0 0 0];

internalField   nonuniform List<scalar> 
9859
(
0.0412372
0.0412362
0.0411875
0.0411826
0.0411895
0.0412064
0.0412311
0.0412513
0.041269
0.0412872
0.0413026
0.0413181
0.0413337
0.0413505
0.0413677
0.0413854
0.041403
0.0414203
0.0414375
0.0414545
0.0414717
0.0414893
0.0415078
0.041527
0.0415472
0.0415681
0.0415893
0.0416103
0.0416309
0.0416511
0.041671
0.0416904
0.0417102
0.0417302
0.0417504
0.0417707
0.0417911
0.0418111
0.0418305
0.0418495
0.0418684
0.0418873
0.0419066
0.0419264
0.0419467
0.041967
0.0419863
0.0420045
0.0420218
0.0420381
0.0420521
0.0420622
0.0420679
0.0420696
0.042069
0.0420667
0.0420635
0.042059
0.0420519
0.0420401
0.0420234
0.0420023
0.0419756
0.0419427
0.0419067
0.041868
0.0418248
0.0417795
0.0417354
0.0412326
0.0412358
0.0411884
0.0411816
0.0411879
0.041204
0.0412277
0.0412479
0.0412655
0.0412837
0.0412991
0.0413146
0.0413303
0.0413471
0.0413644
0.0413821
0.0413998
0.0414171
0.0414343
0.0414514
0.0414687
0.0414863
0.0415048
0.0415241
0.0415443
0.0415652
0.0415865
0.0416075
0.0416281
0.0416484
0.0416683
0.0416878
0.0417076
0.0417276
0.0417478
0.0417683
0.0417888
0.0418088
0.0418284
0.0418476
0.0418667
0.0418857
0.041905
0.0419251
0.0419459
0.0419665
0.041986
0.0420042
0.0420215
0.0420382
0.0420532
0.0420647
0.0420715
0.042074
0.0420736
0.0420711
0.0420679
0.0420637
0.0420579
0.0420478
0.0420327
0.0420131
0.0419891
0.0419585
0.0419222
0.0418836
0.0418418
0.041797
0.0417534
0.0417131
0.0416778
0.0416489
0.0416273
0.0416134
0.0416065
0.041773
0.0417897
0.0418029
0.0418128
0.0418217
0.0418309
0.0418402
0.0418497
0.0418595
0.0418696
0.0418795
0.0418889
0.0418973
0.0419043
0.0419099
0.0419146
0.041919
0.0419239
0.0419296
0.0419364
0.0419445
0.0419547
0.0419674
0.0419823
0.0419998
0.0420172
0.0420376
0.0420581
0.0420783
0.0421045
0.0421333
0.0421644
0.0421948
0.0422307
0.0422714
0.0423189
0.0423462
0.0412278
0.0412353
0.0411894
0.0411807
0.0411861
0.0412014
0.0412243
0.0412444
0.0412618
0.04128
0.0412954
0.041311
0.0413267
0.0413436
0.0413609
0.0413786
0.0413963
0.0414137
0.0414309
0.0414481
0.0414655
0.0414832
0.0415017
0.041521
0.0415413
0.0415622
0.0415835
0.0416045
0.0416252
0.0416455
0.0416654
0.0416849
0.0417048
0.0417248
0.0417451
0.0417657
0.0417863
0.0418064
0.0418261
0.0418455
0.0418647
0.0418839
0.0419034
0.0419237
0.0419448
0.0419658
0.0419856
0.0420038
0.0420211
0.042038
0.0420537
0.0420664
0.0420747
0.0420783
0.0420786
0.0420764
0.042073
0.0420688
0.0420635
0.0420547
0.042041
0.0420229
0.0420019
0.0419745
0.0419389
0.0419003
0.0418595
0.0418155
0.0417724
0.0417325
0.0416973
0.0416684
0.0416469
0.041633
0.0416261
0.0416243
0.0416268
0.0416354
0.0416558
0.041685
0.0417168
0.0417454
0.0417691
0.0417889
0.0418053
0.0418183
0.0418279
0.0418367
0.0418457
0.041855
0.0418646
0.0418745
0.0418849
0.041895
0.0419045
0.041913
0.04192
0.0419255
0.04193
0.0419341
0.0419386
0.041944
0.0419503
0.0419579
0.0419676
0.0419797
0.0419943
0.0420111
0.042028
0.0420479
0.0420677
0.0420875
0.0421127
0.0421407
0.0421708
0.0422005
0.0422345
0.0422717
0.0423143
0.0423297
0.0412229
0.0412348
0.0411904
0.0411797
0.0411841
0.0411987
0.0412207
0.0412406
0.0412579
0.0412761
0.0412915
0.0413072
0.0413229
0.0413399
0.0413572
0.041375
0.0413928
0.0414102
0.0414275
0.0414447
0.0414622
0.0414799
0.0414985
0.0415178
0.0415381
0.0415591
0.0415804
0.0416014
0.0416221
0.0416424
0.0416624
0.041682
0.0417018
0.0417219
0.0417423
0.0417629
0.0417836
0.0418039
0.0418237
0.0418433
0.0418626
0.0418819
0.0419016
0.0419221
0.0419435
0.0419648
0.0419849
0.0420033
0.0420207
0.0420376
0.0420535
0.0420671
0.0420769
0.0420822
0.0420837
0.0420823
0.0420789
0.0420744
0.0420691
0.042061
0.0420486
0.0420321
0.0420139
0.04199
0.0419562
0.0419181
0.0418782
0.041835
0.0417926
0.0417529
0.0417179
0.0416891
0.0416676
0.0416536
0.0416465
0.0416447
0.0416473
0.0416558
0.0416755
0.0417039
0.0417347
0.0417628
0.0417859
0.0418053
0.0418213
0.0418341
0.0418436
0.0418521
0.041861
0.0418703
0.04188
0.04189
0.0419006
0.0419109
0.0419205
0.0419291
0.0419362
0.0419415
0.0419458
0.0419496
0.0419538
0.0419587
0.0419646
0.0419717
0.0419808
0.0419924
0.0420065
0.0420228
0.0420391
0.0420585
0.0420776
0.0420968
0.0421209
0.042148
0.0421771
0.0422061
0.0422381
0.0422718
0.0423094
0.0423115
0.0412178
0.0412341
0.0411915
0.0411788
0.0411819
0.0411959
0.0412169
0.0412367
0.0412539
0.041272
0.0412874
0.0413032
0.041319
0.0413361
0.0413534
0.0413712
0.041389
0.0414065
0.0414238
0.0414411
0.0414587
0.0414765
0.0414951
0.0415144
0.0415348
0.0415558
0.0415771
0.0415982
0.0416189
0.0416392
0.0416592
0.0416788
0.0416987
0.0417188
0.0417393
0.04176
0.0417808
0.0418012
0.0418212
0.0418408
0.0418603
0.0418798
0.0418996
0.0419203
0.0419418
0.0419634
0.0419839
0.0420026
0.0420201
0.0420368
0.0420527
0.0420666
0.0420776
0.0420851
0.0420885
0.0420884
0.0420855
0.0420807
0.0420752
0.0420676
0.0420564
0.0420413
0.0420251
0.0420042
0.0419735
0.0419367
0.0418978
0.0418556
0.0418139
0.0417745
0.0417396
0.0417107
0.0416891
0.0416751
0.0416679
0.0416659
0.0416685
0.0416769
0.0416957
0.0417232
0.0417532
0.0417806
0.0418032
0.0418221
0.0418378
0.0418503
0.0418597
0.0418681
0.0418768
0.0418861
0.0418959
0.0419061
0.0419169
0.0419273
0.0419372
0.0419458
0.0419528
0.041958
0.041962
0.0419656
0.0419694
0.0419739
0.0419793
0.0419859
0.0419944
0.0420054
0.0420191
0.0420347
0.0420504
0.0420694
0.0420878
0.0421063
0.0421294
0.0421553
0.0421832
0.0422112
0.0422412
0.0422717
0.0423048
0.0422917
0.0420073
0.0412126
0.0412333
0.0411925
0.041178
0.0411795
0.0411929
0.0412131
0.0412327
0.0412496
0.0412678
0.0412832
0.0412991
0.0413149
0.041332
0.0413494
0.0413673
0.0413851
0.0414026
0.0414201
0.0414374
0.041455
0.0414729
0.0414915
0.0415109
0.0415313
0.0415523
0.0415737
0.0415948
0.0416156
0.0416359
0.0416559
0.0416755
0.0416954
0.0417156
0.0417361
0.0417569
0.0417778
0.0417983
0.0418184
0.0418382
0.0418578
0.0418774
0.0418974
0.0419182
0.0419398
0.0419616
0.0419823
0.0420016
0.0420193
0.0420358
0.0420511
0.042065
0.042077
0.0420862
0.0420923
0.042094
0.0420924
0.0420879
0.042082
0.0420748
0.0420649
0.0420513
0.042036
0.0420172
0.0419903
0.0419558
0.041918
0.0418773
0.0418362
0.0417973
0.0417626
0.0417336
0.0417118
0.0416975
0.0416902
0.0416881
0.0416905
0.0416987
0.0417166
0.041743
0.0417721
0.0417989
0.041821
0.0418394
0.0418548
0.0418672
0.0418764
0.0418846
0.0418932
0.0419025
0.0419124
0.0419228
0.0419337
0.0419444
0.0419543
0.041963
0.0419699
0.041975
0.0419787
0.041982
0.0419854
0.0419894
0.0419944
0.0420005
0.0420084
0.0420188
0.0420321
0.0420471
0.0420621
0.0420806
0.0420981
0.0421159
0.0421378
0.0421626
0.0421892
0.0422162
0.0422438
0.042271
0.0422996
0.0422708
0.0419699
0.0412071
0.0412324
0.0411935
0.0411773
0.0411769
0.0411898
0.041209
0.0412284
0.0412452
0.0412634
0.0412788
0.0412948
0.0413107
0.0413279
0.0413453
0.0413632
0.041381
0.0413986
0.0414161
0.0414335
0.0414512
0.0414691
0.0414878
0.0415072
0.0415277
0.0415487
0.0415701
0.0415913
0.0416121
0.0416324
0.0416524
0.0416721
0.041692
0.0417121
0.0417327
0.0417536
0.0417746
0.0417952
0.0418154
0.0418353
0.0418551
0.0418748
0.041895
0.0419158
0.0419373
0.0419591
0.0419803
0.0420002
0.0420183
0.0420345
0.0420492
0.0420626
0.042075
0.0420858
0.042094
0.0420986
0.0420988
0.0420954
0.0420897
0.0420829
0.0420746
0.0420628
0.0420477
0.0420297
0.0420066
0.0419752
0.041939
0.0418999
0.0418597
0.0418213
0.0417868
0.0417578
0.0417357
0.0417211
0.0417135
0.0417112
0.0417134
0.0417214
0.0417381
0.0417635
0.0417916
0.0418178
0.0418395
0.0418574
0.0418725
0.0418846
0.0418938
0.0419019
0.0419103
0.0419197
0.0419297
0.0419403
0.0419514
0.0419621
0.0419721
0.0419808
0.0419876
0.0419925
0.0419959
0.0419988
0.0420018
0.0420055
0.04201
0.0420156
0.042023
0.0420328
0.0420455
0.0420598
0.0420742
0.042092
0.0421088
0.0421257
0.0421464
0.0421698
0.042195
0.0422207
0.0422455
0.0422697
0.0422932
0.0422495
0.0419327
0.0412015
0.0412313
0.0411946
0.0411766
0.0411741
0.0411867
0.0412048
0.041224
0.0412406
0.0412588
0.0412742
0.0412903
0.0413062
0.0413235
0.0413409
0.0413589
0.0413768
0.0413944
0.041412
0.0414294
0.0414472
0.0414651
0.0414839
0.0415034
0.0415238
0.0415449
0.0415663
0.0415875
0.0416084
0.0416288
0.0416488
0.0416685
0.0416884
0.0417086
0.0417292
0.0417501
0.0417712
0.0417919
0.0418122
0.0418322
0.0418521
0.0418721
0.0418923
0.0419131
0.0419346
0.0419563
0.0419778
0.0419983
0.042017
0.0420331
0.0420471
0.0420599
0.0420723
0.042084
0.0420938
0.0421009
0.0421038
0.0421023
0.0420978
0.042092
0.0420854
0.0420758
0.0420609
0.0420429
0.0420227
0.0419947
0.0419606
0.0419234
0.0418843
0.0418465
0.0418123
0.0417832
0.0417609
0.0417459
0.041738
0.0417354
0.0417373
0.0417451
0.0417605
0.0417846
0.0418118
0.0418372
0.0418586
0.041876
0.0418908
0.0419027
0.0419119
0.0419199
0.0419283
0.0419377
0.0419479
0.0419586
0.0419698
0.0419806
0.0419906
0.0419992
0.0420058
0.0420105
0.0420137
0.0420162
0.0420188
0.042022
0.0420261
0.0420312
0.0420381
0.0420473
0.0420594
0.0420731
0.0420866
0.0421037
0.0421196
0.0421356
0.042155
0.042177
0.0422007
0.0422251
0.0422467
0.0422677
0.0422845
0.0422278
0.0418955
0.0411956
0.0412299
0.0411956
0.0411759
0.0411711
0.0411834
0.0412005
0.0412193
0.0412357
0.041254
0.0412694
0.0412857
0.0413016
0.0413189
0.0413364
0.0413544
0.0413723
0.04139
0.0414077
0.0414252
0.041443
0.041461
0.0414798
0.0414993
0.0415199
0.0415409
0.0415624
0.0415836
0.0416046
0.0416249
0.041645
0.0416647
0.0416846
0.0417048
0.0417254
0.0417464
0.0417676
0.0417884
0.0418088
0.0418289
0.041849
0.041869
0.0418894
0.0419102
0.0419315
0.0419531
0.0419748
0.0419959
0.0420152
0.0420316
0.0420452
0.0420575
0.0420696
0.0420815
0.0420923
0.042101
0.0421066
0.0421079
0.0421055
0.0421013
0.0420966
0.0420893
0.0420757
0.0420578
0.0420394
0.0420146
0.0419828
0.0419475
0.0419098
0.0418729
0.0418391
0.04181
0.0417874
0.041772
0.0417636
0.0417607
0.0417622
0.0417698
0.0417839
0.0418066
0.0418328
0.0418574
0.0418784
0.0418954
0.0419099
0.0419217
0.0419308
0.0419388
0.0419471
0.0419567
0.041967
0.0419779
0.0419891
0.042
0.0420099
0.0420183
0.0420247
0.0420291
0.0420319
0.0420341
0.0420363
0.0420391
0.0420428
0.0420475
0.0420538
0.0420624
0.0420738
0.0420867
0.0420994
0.0421156
0.0421306
0.0421457
0.0421637
0.0421843
0.0422062
0.042229
0.0422472
0.0422651
0.0422742
0.0422055
0.0418582
0.0411895
0.0412284
0.0411965
0.0411753
0.041168
0.0411799
0.041196
0.0412145
0.0412307
0.041249
0.0412645
0.0412808
0.0412968
0.0413142
0.0413317
0.0413497
0.0413677
0.0413854
0.0414031
0.0414207
0.0414386
0.0414566
0.0414755
0.0414951
0.0415157
0.0415368
0.0415582
0.0415796
0.0416005
0.0416209
0.041641
0.0416607
0.0416806
0.0417009
0.0417215
0.0417426
0.0417638
0.0417847
0.0418052
0.0418254
0.0418456
0.0418658
0.0418863
0.0419072
0.0419283
0.0419498
0.0419716
0.0419931
0.0420129
0.0420299
0.0420439
0.0420561
0.0420679
0.0420795
0.0420903
0.0420999
0.0421073
0.0421115
0.042112
0.0421099
0.0421067
0.0421016
0.0420907
0.0420743
0.0420567
0.0420345
0.0420053
0.0419718
0.0419362
0.0419004
0.0418671
0.0418381
0.0418153
0.0417994
0.0417905
0.0417872
0.0417883
0.0417955
0.0418083
0.0418294
0.0418546
0.0418784
0.041899
0.0419157
0.0419299
0.0419415
0.0419507
0.0419587
0.0419671
0.0419767
0.0419872
0.0419982
0.0420095
0.0420203
0.04203
0.0420381
0.0420443
0.0420483
0.0420508
0.0420526
0.0420545
0.0420569
0.0420601
0.0420643
0.0420702
0.0420782
0.0420887
0.0421007
0.0421125
0.0421278
0.0421418
0.0421557
0.0421725
0.0421917
0.0422117
0.0422328
0.0422475
0.042262
0.0422624
0.0421821
0.0418206
0.0411832
0.0412265
0.0411973
0.0411747
0.0411648
0.0411763
0.0411913
0.0412094
0.0412255
0.0412438
0.0412593
0.0412758
0.0412918
0.0413092
0.0413268
0.0413448
0.0413629
0.0413806
0.0413984
0.0414161
0.041434
0.0414521
0.041471
0.0414907
0.0415113
0.0415325
0.0415539
0.0415753
0.0415963
0.0416167
0.0416368
0.0416565
0.0416765
0.0416967
0.0417174
0.0417385
0.0417598
0.0417808
0.0418014
0.0418218
0.0418421
0.0418624
0.0418831
0.0419041
0.0419253
0.0419467
0.0419684
0.04199
0.0420103
0.0420281
0.042043
0.0420558
0.0420674
0.0420785
0.0420889
0.0420985
0.0421069
0.0421133
0.0421166
0.0421167
0.0421145
0.0421109
0.0421036
0.0420907
0.042074
0.0420537
0.0420275
0.0419963
0.0419631
0.0419287
0.0418962
0.0418675
0.0418444
0.0418282
0.0418188
0.041815
0.0418156
0.0418224
0.0418339
0.0418533
0.0418774
0.0419004
0.0419205
0.041937
0.0419508
0.0419623
0.0419717
0.0419797
0.0419882
0.041998
0.0420086
0.0420197
0.0420309
0.0420415
0.042051
0.0420587
0.0420645
0.0420682
0.0420704
0.0420718
0.0420733
0.0420753
0.0420781
0.0420819
0.0420873
0.0420947
0.0421042
0.0421153
0.042126
0.0421402
0.0421531
0.0421659
0.0421814
0.0421992
0.0422171
0.0422361
0.0422475
0.0422584
0.0422498
0.0421577
0.0417829
0.0411767
0.0412242
0.0411978
0.0411741
0.0411616
0.0411725
0.0411865
0.0412042
0.04122
0.0412383
0.0412539
0.0412705
0.0412866
0.0413041
0.0413216
0.0413397
0.0413578
0.0413757
0.0413935
0.0414112
0.0414292
0.0414473
0.0414663
0.0414861
0.0415068
0.0415279
0.0415494
0.0415708
0.0415919
0.0416124
0.0416324
0.0416522
0.0416722
0.0416924
0.0417131
0.0417342
0.0417555
0.0417766
0.0417973
0.0418178
0.0418383
0.0418588
0.0418797
0.0419009
0.0419224
0.0419439
0.0419654
0.0419867
0.0420073
0.0420261
0.0420424
0.0420563
0.0420683
0.042079
0.0420888
0.0420979
0.0421064
0.042114
0.0421193
0.0421212
0.0421198
0.0421169
0.0421131
0.0421048
0.0420901
0.0420718
0.0420493
0.0420211
0.0419903
0.0419577
0.0419261
0.0418979
0.0418749
0.0418583
0.0418484
0.0418441
0.0418443
0.0418505
0.0418608
0.0418784
0.0419013
0.0419234
0.041943
0.0419593
0.0419729
0.0419843
0.0419938
0.042002
0.0420106
0.0420205
0.0420313
0.0420423
0.0420534
0.0420637
0.0420728
0.0420801
0.0420855
0.0420888
0.0420906
0.0420916
0.0420927
0.0420944
0.0420968
0.0421001
0.042105
0.0421117
0.0421202
0.0421303
0.0421398
0.0421529
0.0421646
0.0421761
0.0421903
0.0422068
0.0422226
0.042239
0.0422473
0.0422543
0.0422363
0.0421322
0.0417452
0.0411701
0.0412214
0.0411981
0.0411735
0.0411584
0.0411684
0.0411815
0.0411988
0.0412144
0.0412327
0.0412483
0.041265
0.0412812
0.0412987
0.0413163
0.0413344
0.0413526
0.0413705
0.0413884
0.0414061
0.0414241
0.0414423
0.0414615
0.0414813
0.041502
0.0415232
0.0415447
0.0415661
0.0415872
0.0416077
0.0416278
0.0416476
0.0416676
0.0416879
0.0417086
0.0417298
0.0417511
0.0417722
0.0417931
0.0418137
0.0418343
0.041855
0.0418761
0.0418978
0.0419197
0.0419414
0.0419627
0.0419837
0.0420043
0.0420239
0.0420417
0.042057
0.04207
0.042081
0.0420904
0.0420989
0.042107
0.0421147
0.042121
0.0421242
0.0421239
0.0421217
0.04212
0.0421159
0.0421051
0.0420894
0.0420706
0.0420457
0.0420173
0.0419868
0.0419567
0.0419293
0.0419065
0.0418897
0.0418793
0.0418745
0.0418742
0.0418799
0.0418891
0.0419049
0.0419264
0.0419477
0.0419667
0.0419828
0.0419962
0.0420075
0.0420172
0.0420256
0.0420343
0.0420443
0.0420551
0.0420661
0.0420769
0.0420868
0.0420954
0.0421022
0.0421071
0.0421099
0.0421113
0.042112
0.0421128
0.0421141
0.0421161
0.042119
0.0421233
0.0421292
0.0421367
0.0421455
0.042154
0.0421657
0.0421763
0.0421864
0.0421992
0.0422142
0.042228
0.0422414
0.042247
0.0422495
0.042222
0.042106
0.0417075
0.0411634
0.0412183
0.0411981
0.0411728
0.0411551
0.0411642
0.0411763
0.0411931
0.0412085
0.0412268
0.0412425
0.0412593
0.0412755
0.0412931
0.0413107
0.0413289
0.0413471
0.041365
0.041383
0.0414008
0.0414189
0.0414372
0.0414564
0.0414762
0.041497
0.0415182
0.0415398
0.0415612
0.0415824
0.0416029
0.041623
0.0416429
0.0416629
0.0416832
0.0417039
0.041725
0.0417464
0.0417675
0.0417885
0.0418093
0.04183
0.0418509
0.0418723
0.0418943
0.0419167
0.0419388
0.0419602
0.041981
0.0420014
0.0420213
0.0420401
0.0420567
0.0420708
0.0420828
0.0420931
0.0421017
0.0421092
0.0421162
0.0421226
0.042127
0.0421285
0.0421278
0.0421271
0.0421256
0.0421192
0.0421069
0.0420909
0.0420695
0.0420437
0.0420159
0.0419877
0.0419614
0.0419391
0.0419222
0.0419114
0.0419062
0.0419055
0.0419104
0.0419189
0.0419327
0.0419527
0.0419731
0.0419915
0.0420075
0.0420207
0.0420319
0.0420418
0.0420504
0.0420593
0.0420694
0.0420801
0.0420909
0.0421013
0.0421106
0.0421186
0.0421248
0.0421291
0.0421315
0.0421325
0.0421329
0.0421333
0.0421343
0.0421359
0.0421383
0.042142
0.0421471
0.0421536
0.042161
0.0421685
0.0421788
0.042188
0.0421966
0.0422082
0.0422213
0.0422333
0.0422434
0.0422465
0.0422434
0.0422065
0.0420787
0.0416706
0.0411563
0.0412149
0.041198
0.0411721
0.0411519
0.0411596
0.041171
0.0411872
0.0412024
0.0412207
0.0412364
0.0412534
0.0412696
0.0412872
0.0413049
0.0413231
0.0413414
0.0413594
0.0413774
0.0413952
0.0414134
0.0414318
0.041451
0.041471
0.0414918
0.041513
0.0415346
0.0415561
0.0415773
0.0415979
0.041618
0.0416379
0.0416579
0.0416782
0.0416989
0.0417201
0.0417414
0.0417626
0.0417837
0.0418046
0.0418255
0.0418466
0.0418682
0.0418905
0.0419134
0.041936
0.0419578
0.0419786
0.0419987
0.0420184
0.0420372
0.0420544
0.0420697
0.042083
0.0420946
0.0421043
0.0421122
0.0421187
0.0421248
0.0421303
0.0421348
0.0421366
0.0421363
0.0421352
0.0421322
0.0421234
0.0421097
0.0420918
0.0420694
0.0420445
0.0420186
0.0419938
0.0419722
0.0419556
0.0419446
0.0419391
0.041938
0.0419421
0.04195
0.041962
0.0419803
0.0419998
0.0420175
0.0420333
0.0420464
0.0420575
0.0420675
0.0420764
0.0420854
0.0420954
0.042106
0.0421164
0.0421263
0.042135
0.0421422
0.0421477
0.0421515
0.0421534
0.042154
0.042154
0.0421542
0.0421548
0.042156
0.042158
0.0421609
0.0421651
0.0421705
0.0421767
0.0421831
0.0421919
0.0421996
0.0422069
0.0422169
0.042228
0.0422381
0.042245
0.0422455
0.0422359
0.0421896
0.0420503
0.0416335
0.0411489
0.0412114
0.0411976
0.0411713
0.0411487
0.0411549
0.0411655
0.0411811
0.0411961
0.0412144
0.0412302
0.0412472
0.0412635
0.0412811
0.0412989
0.0413171
0.0413354
0.0413535
0.0413716
0.0413894
0.0414077
0.0414261
0.0414455
0.0414655
0.0414863
0.0415075
0.0415292
0.0415507
0.041572
0.0415926
0.0416128
0.0416327
0.0416527
0.041673
0.0416937
0.0417148
0.0417362
0.0417574
0.0417786
0.0417996
0.0418206
0.0418418
0.0418636
0.0418861
0.0419092
0.0419323
0.0419547
0.0419761
0.0419962
0.0420152
0.0420331
0.04205
0.0420659
0.0420805
0.0420935
0.0421047
0.0421139
0.0421212
0.0421275
0.0421341
0.0421409
0.0421453
0.0421459
0.0421445
0.042143
0.0421377
0.0421271
0.0421126
0.0420941
0.0420721
0.0420489
0.042026
0.0420057
0.0419896
0.0419787
0.0419729
0.0419715
0.0419748
0.0419824
0.0419926
0.0420092
0.0420277
0.0420448
0.0420601
0.0420733
0.0420842
0.0420943
0.0421034
0.0421123
0.0421222
0.0421324
0.0421423
0.0421514
0.0421594
0.0421658
0.0421706
0.0421737
0.0421752
0.0421754
0.0421752
0.042175
0.0421752
0.0421761
0.0421775
0.0421797
0.0421831
0.0421874
0.0421923
0.0421977
0.0422048
0.0422109
0.0422169
0.0422255
0.0422344
0.0422421
0.0422462
0.0422433
0.0422268
0.042171
0.0420204
0.0415965
0.0411411
0.0412076
0.0411968
0.0411703
0.0411455
0.0411499
0.0411598
0.0411747
0.0411895
0.0412078
0.0412237
0.0412408
0.0412571
0.0412748
0.0412925
0.0413108
0.0413292
0.0413473
0.0413655
0.0413834
0.0414017
0.0414203
0.0414397
0.0414597
0.0414805
0.0415018
0.0415235
0.0415451
0.0415664
0.041587
0.0416073
0.0416272
0.0416472
0.0416675
0.0416882
0.0417093
0.0417307
0.041752
0.0417731
0.0417942
0.0418154
0.0418367
0.0418586
0.0418812
0.0419043
0.0419278
0.041951
0.0419731
0.0419935
0.0420117
0.0420286
0.0420447
0.0420604
0.0420756
0.0420898
0.0421025
0.0421134
0.0421224
0.04213
0.042137
0.0421441
0.04215
0.0421527
0.0421526
0.042152
0.0421497
0.042143
0.0421318
0.042117
0.0420983
0.0420781
0.0420576
0.0420389
0.0420237
0.0420131
0.0420074
0.0420057
0.0420085
0.0420156
0.0420244
0.0420393
0.0420567
0.042073
0.0420879
0.042101
0.0421117
0.0421217
0.0421309
0.0421397
0.0421492
0.042159
0.0421681
0.0421765
0.0421835
0.0421891
0.0421932
0.0421957
0.0421966
0.0421964
0.0421958
0.0421954
0.0421953
0.0421957
0.0421966
0.0421981
0.0422006
0.0422038
0.0422074
0.0422118
0.0422173
0.0422218
0.0422266
0.0422332
0.0422401
0.0422452
0.0422466
0.0422394
0.042216
0.0421504
0.0419881
0.0415589
0.041133
0.0412037
0.0411957
0.0411691
0.0411423
0.0411448
0.0411539
0.0411681
0.0411827
0.041201
0.0412169
0.0412341
0.0412505
0.0412682
0.041286
0.0413043
0.0413227
0.0413409
0.0413591
0.0413771
0.0413955
0.0414142
0.0414337
0.0414537
0.0414745
0.0414959
0.0415176
0.0415392
0.0415605
0.0415812
0.0416015
0.0416215
0.0416415
0.0416617
0.0416824
0.0417036
0.0417249
0.0417462
0.0417674
0.0417885
0.0418097
0.0418311
0.0418531
0.0418756
0.0418987
0.0419221
0.0419458
0.0419687
0.0419896
0.0420081
0.0420247
0.0420403
0.0420556
0.0420705
0.0420849
0.0420984
0.0421109
0.0421218
0.0421311
0.0421387
0.0421453
0.0421514
0.0421566
0.0421594
0.0421602
0.0421599
0.0421569
0.0421492
0.0421377
0.0421227
0.0421057
0.042088
0.0420714
0.0420576
0.0420477
0.0420421
0.0420404
0.0420428
0.0420494
0.0420572
0.0420702
0.0420864
0.042102
0.0421164
0.0421292
0.0421397
0.0421495
0.0421585
0.0421671
0.042176
0.042185
0.0421933
0.0422007
0.0422068
0.0422115
0.0422149
0.0422167
0.0422172
0.0422167
0.0422158
0.042215
0.0422145
0.0422145
0.0422147
0.0422156
0.0422172
0.0422193
0.0422219
0.0422252
0.0422292
0.042232
0.0422354
0.0422403
0.042245
0.0422473
0.0422455
0.0422335
0.042203
0.0421277
0.0419539
0.0415185
0.0411245
0.0411995
0.0411941
0.0411677
0.0411392
0.0411395
0.0411478
0.0411613
0.0411757
0.0411939
0.0412099
0.0412272
0.0412436
0.0412613
0.0412791
0.0412975
0.0413159
0.0413342
0.0413525
0.0413705
0.0413891
0.0414078
0.0414273
0.0414474
0.0414683
0.0414896
0.0415114
0.041533
0.0415544
0.0415752
0.0415955
0.0416155
0.0416354
0.0416556
0.0416763
0.0416975
0.0417188
0.0417401
0.0417613
0.0417824
0.0418036
0.0418251
0.0418472
0.0418698
0.0418927
0.041916
0.0419397
0.041963
0.0419848
0.0420042
0.0420215
0.0420375
0.0420528
0.0420675
0.0420816
0.042095
0.0421079
0.04212
0.0421308
0.0421395
0.0421463
0.0421527
0.0421594
0.0421649
0.0421678
0.0421688
0.0421684
0.0421642
0.0421562
0.042145
0.0421314
0.0421167
0.0421025
0.0420904
0.0420815
0.0420765
0.042075
0.0420772
0.0420833
0.0420904
0.0421018
0.0421167
0.0421313
0.042145
0.0421575
0.0421676
0.042177
0.0421856
0.0421937
0.0422018
0.0422099
0.0422173
0.0422236
0.0422289
0.0422327
0.0422353
0.0422366
0.0422367
0.0422358
0.0422345
0.0422333
0.0422326
0.042232
0.0422317
0.0422318
0.0422326
0.0422337
0.0422352
0.0422375
0.0422398
0.0422413
0.0422433
0.0422459
0.0422483
0.0422481
0.0422428
0.0422255
0.0421877
0.0421024
0.0419171
0.0414773
0.0411158
0.0411952
0.0411921
0.0411662
0.041136
0.0411339
0.0411414
0.0411542
0.0411684
0.0411866
0.0412026
0.04122
0.0412364
0.0412542
0.041272
0.0412904
0.0413089
0.0413272
0.0413456
0.0413637
0.0413823
0.0414011
0.0414207
0.0414408
0.0414617
0.0414831
0.0415049
0.0415266
0.041548
0.0415688
0.0415892
0.0416092
0.0416291
0.0416493
0.04167
0.0416911
0.0417124
0.0417337
0.0417549
0.041776
0.0417972
0.0418188
0.041841
0.0418638
0.0418868
0.04191
0.0419334
0.0419567
0.041979
0.0419996
0.0420184
0.0420356
0.0420516
0.0420664
0.0420802
0.0420932
0.0421059
0.0421183
0.04213
0.04214
0.0421481
0.0421553
0.0421624
0.042169
0.0421738
0.0421765
0.0421777
0.0421767
0.0421724
0.0421647
0.0421545
0.042143
0.0421316
0.0421217
0.0421143
0.04211
0.0421089
0.042111
0.0421167
0.0421235
0.0421333
0.0421468
0.0421605
0.0421734
0.0421853
0.0421949
0.0422035
0.0422115
0.0422188
0.0422259
0.042233
0.0422393
0.0422447
0.042249
0.0422521
0.042254
0.0422548
0.0422545
0.0422533
0.0422517
0.0422502
0.0422489
0.0422478
0.0422469
0.0422464
0.0422463
0.0422465
0.0422471
0.0422483
0.0422492
0.0422493
0.0422496
0.0422505
0.0422505
0.0422471
0.0422378
0.0422154
0.0421696
0.0420748
0.0418782
0.0414345
0.0411068
0.0411906
0.0411898
0.0411644
0.0411328
0.0411281
0.0411348
0.0411468
0.0411608
0.041179
0.041195
0.0412125
0.041229
0.0412468
0.0412646
0.041283
0.0413016
0.0413199
0.0413384
0.0413566
0.0413753
0.0413942
0.0414138
0.0414339
0.0414548
0.0414762
0.0414981
0.0415198
0.0415413
0.0415621
0.0415826
0.0416026
0.0416225
0.0416427
0.0416633
0.0416844
0.0417057
0.041727
0.0417482
0.0417693
0.0417905
0.0418122
0.0418346
0.0418576
0.0418809
0.0419042
0.0419275
0.0419505
0.041973
0.0419944
0.0420145
0.0420329
0.0420498
0.0420651
0.0420793
0.0420924
0.0421049
0.042117
0.0421287
0.0421398
0.0421499
0.0421584
0.0421654
0.0421721
0.0421781
0.0421827
0.0421857
0.0421869
0.0421858
0.0421816
0.0421749
0.0421667
0.0421583
0.0421508
0.0421451
0.042142
0.0421414
0.0421439
0.0421493
0.0421558
0.0421642
0.0421764
0.0421889
0.0422009
0.0422118
0.0422207
0.0422284
0.0422354
0.0422418
0.0422478
0.0422536
0.0422589
0.0422633
0.0422668
0.0422692
0.0422706
0.0422711
0.0422704
0.0422687
0.0422668
0.042265
0.0422634
0.0422619
0.0422604
0.0422591
0.0422583
0.0422576
0.0422574
0.0422574
0.0422569
0.0422556
0.0422546
0.0422532
0.0422507
0.0422443
0.0422308
0.0422031
0.0421492
0.0420448
0.0418374
0.0413895
0.0410974
0.0411859
0.041187
0.0411625
0.0411294
0.0411221
0.041128
0.0411393
0.0411531
0.0411711
0.0411872
0.0412048
0.0412212
0.0412391
0.0412569
0.0412753
0.0412939
0.0413123
0.0413309
0.0413492
0.041368
0.0413869
0.0414065
0.0414267
0.0414476
0.041469
0.0414909
0.0415127
0.0415342
0.0415551
0.0415756
0.0415956
0.0416155
0.0416357
0.0416564
0.0416774
0.0416986
0.0417199
0.0417411
0.0417623
0.0417836
0.0418053
0.0418278
0.041851
0.0418747
0.0418986
0.0419222
0.0419452
0.0419674
0.0419886
0.0420087
0.0420278
0.0420456
0.0420622
0.0420774
0.0420913
0.0421042
0.0421161
0.0421277
0.0421392
0.0421504
0.0421602
0.0421679
0.0421746
0.0421814
0.0421874
0.0421921
0.0421952
0.0421965
0.0421955
0.0421922
0.0421874
0.0421821
0.0421771
0.0421734
0.0421716
0.0421719
0.0421748
0.0421801
0.0421864
0.0421938
0.0422046
0.0422159
0.0422266
0.0422365
0.0422444
0.042251
0.0422569
0.0422621
0.0422669
0.0422716
0.0422758
0.0422794
0.0422821
0.0422839
0.0422849
0.042285
0.042284
0.0422821
0.04228
0.0422778
0.0422757
0.0422737
0.0422717
0.0422698
0.0422682
0.0422669
0.0422659
0.0422647
0.042263
0.0422605
0.0422574
0.0422545
0.0422491
0.0422396
0.0422217
0.0421886
0.0421264
0.0420124
0.0417941
0.0413465
0.0410877
0.041181
0.041184
0.0411602
0.0411259
0.0411159
0.0411208
0.0411315
0.0411451
0.0411631
0.0411791
0.0411967
0.0412132
0.0412311
0.041249
0.0412674
0.041286
0.0413045
0.0413231
0.0413415
0.0413603
0.0413793
0.041399
0.0414192
0.0414402
0.0414616
0.0414835
0.0415053
0.0415268
0.0415478
0.0415683
0.0415883
0.0416083
0.0416284
0.041649
0.04167
0.0416912
0.0417124
0.0417337
0.0417549
0.0417763
0.0417981
0.0418206
0.0418439
0.041868
0.0418926
0.0419168
0.04194
0.0419619
0.0419825
0.042002
0.0420208
0.0420389
0.0420561
0.0420722
0.0420872
0.0421012
0.0421141
0.0421264
0.0421382
0.0421495
0.0421599
0.0421689
0.0421767
0.042184
0.0421909
0.0421971
0.0422018
0.0422051
0.0422067
0.0422066
0.0422051
0.0422026
0.0422004
0.0421988
0.0421985
0.0421999
0.0422033
0.0422086
0.0422148
0.0422214
0.0422308
0.0422408
0.0422502
0.0422586
0.0422653
0.0422708
0.0422754
0.0422794
0.0422831
0.0422866
0.0422898
0.0422927
0.0422949
0.0422962
0.0422968
0.0422966
0.0422953
0.0422932
0.0422908
0.0422883
0.0422859
0.0422835
0.042281
0.0422786
0.0422764
0.0422744
0.0422726
0.0422703
0.0422673
0.0422633
0.042259
0.0422538
0.0422459
0.0422329
0.0422107
0.0421719
0.042102
0.041979
0.0417502
0.0412987
0.0410776
0.0411759
0.0411806
0.0411576
0.0411222
0.0411095
0.0411135
0.0411235
0.0411369
0.0411547
0.0411708
0.0411884
0.041205
0.0412228
0.0412407
0.0412591
0.0412778
0.0412963
0.041315
0.0413334
0.0413523
0.0413714
0.0413911
0.0414114
0.0414324
0.0414538
0.0414757
0.0414975
0.0415191
0.0415401
0.0415606
0.0415806
0.0416006
0.0416208
0.0416414
0.0416623
0.0416834
0.0417046
0.0417258
0.041747
0.0417685
0.0417903
0.0418129
0.0418362
0.0418604
0.0418851
0.0419098
0.0419335
0.0419556
0.0419761
0.0419955
0.0420142
0.0420321
0.0420494
0.042066
0.0420818
0.042097
0.0421115
0.0421249
0.0421372
0.0421485
0.0421593
0.0421695
0.0421786
0.0421866
0.0421939
0.0422006
0.042207
0.042212
0.0422158
0.0422182
0.0422195
0.04222
0.0422202
0.0422208
0.0422221
0.0422247
0.0422287
0.0422341
0.0422402
0.0422463
0.0422543
0.0422629
0.042271
0.0422779
0.0422833
0.0422876
0.0422909
0.0422937
0.0422963
0.0422989
0.0423014
0.0423036
0.0423053
0.0423063
0.0423066
0.0423061
0.0423047
0.0423024
0.0422997
0.0422969
0.042294
0.0422912
0.0422883
0.0422854
0.0422828
0.0422801
0.0422776
0.0422742
0.0422703
0.0422651
0.0422588
0.0422514
0.0422408
0.0422246
0.042198
0.0421534
0.0420757
0.0419431
0.0417061
0.0412545
0.0410674
0.0411706
0.0411767
0.0411546
0.0411184
0.0411029
0.0411059
0.0411153
0.0411284
0.0411461
0.0411622
0.0411798
0.0411963
0.0412142
0.0412321
0.0412506
0.0412693
0.0412878
0.0413066
0.0413251
0.041344
0.0413631
0.0413829
0.0414032
0.0414242
0.0414457
0.0414675
0.0414893
0.041511
0.041532
0.0415526
0.0415726
0.0415926
0.0416127
0.0416333
0.0416541
0.0416752
0.0416964
0.0417175
0.0417387
0.0417602
0.0417822
0.0418048
0.041828
0.041852
0.0418766
0.0419014
0.0419256
0.0419483
0.0419695
0.0419893
0.0420083
0.0420264
0.0420439
0.0420607
0.0420769
0.0420925
0.0421076
0.0421219
0.0421351
0.0421473
0.0421588
0.0421697
0.0421796
0.0421883
0.0421961
0.0422039
0.0422112
0.0422175
0.042223
0.0422275
0.0422312
0.0422341
0.0422368
0.0422394
0.0422423
0.0422462
0.0422509
0.0422565
0.0422624
0.0422681
0.0422749
0.0422822
0.0422888
0.0422942
0.0422983
0.0423013
0.0423036
0.0423054
0.0423072
0.042309
0.0423108
0.0423126
0.042314
0.0423147
0.0423148
0.0423141
0.0423126
0.0423101
0.0423071