/*--------------------------------*- C++ -*----------------------------------*\
| =========                 |                                                 |
| \\      /  F ield         | OpenFOAM: The Open Source CFD Toolbox           |
|  \\    /   O peration     | Version:  2412                                  |
|   \\  /    A nd           | Website:  www.openfoam.com                      |
|    \\/     M anipulation  |                                                 |
\*---------------------------------------------------------------------------*/
FoamFile
{
    version     2.0;
    format      ascii;
    arch        "LSB;label=32;scalar=64";
    class       volScalarField;
    location    "0.051";
    object      p;
}
// * * * * * * * * * * * * * * * * * * * * * * * * * * * * * * * * * * * * * //

dimensions      [1 -1 -2 0 0 0 0];

internalField   nonuniform List<scalar> 
78650
(
2790
2790.12
2791.57
2797.74
2807.58
2814.09
2814.8
2812.05
2800.63
2786.63
2775.31
2766.16
2757.73
2749.96
2744.72
2743.16
2743.88
2746.76
2749.38
2750.32
2750.28
2749.45
2747.85
2746.23
2744.75
2743.28
2741.82
2740.41
2739.05
2737.62
2735.94
2733.87
2731.4
2728.64
2725.72
2722.73
2719.7
2716.66
2713.63
2710.64
2707.72
2704.9
2702.21
2699.65
2697.25
2695.02
2692.97
2691.08
2689.36
2687.78
2686.35
2685.05
2683.87
2682.8
2681.83
2680.93
2680.09
2679.29
2678.48
2677.65
2676.77
2675.83
2674.78
2673.58
2672.18
2670.56
2668.66
2666.46
2663.89
2660.91
2657.48
2653.54
2649.01
2643.79
2637.76
2630.84
2622.94
2614.01
2603.94
2592.61
2579.89
2565.64
2549.75
2532.04
2512.34
2490.41
2466.12
2439.32
2410.11
2378.24
2343.65
2305.84
2265.5
2221.71
2175.43
2125.53
2072.63
2017.22
1958.08
1895.44
1832.07
1768.89
1703.09
1640.98
1579.04
1518.87
1458.57
1396.61
1338.65
1283.49
1233.09
1189.59
1150.54
1115.34
1083.4
1052.29
1023.9
997.61
976.861
960.593
925.634
2790
2790.06
2791.01
2796.05
2805.84
2813.69
2815.36
2813.85
2804.27
2790.56
2778.95
2769.71
2761.41
2753.43
2747.2
2744.73
2744.87
2747.16
2750.23
2751.78
2752.07
2751.64
2750.27
2748.66
2747.19
2745.78
2744.38
2743.05
2741.77
2740.46
2738.92
2737
2734.69
2732.08
2729.32
2726.48
2723.6
2720.69
2717.79
2714.93
2712.15
2709.49
2706.96
2704.58
2702.36
2700.31
2698.44
2696.75
2695.22
2693.85
2692.62
2691.54
2690.59
2689.75
2689.03
2688.4
2687.84
2687.34
2686.86
2686.37
2685.86
2685.3
2684.67
2683.93
2683.03
2681.92
2680.59
2679
2677.09
2674.82
2672.14
2669.02
2665.38
2661.14
2656.18
2650.42
2643.76
2636.16
2627.52
2617.74
2606.7
2594.28
2580.35
2564.71
2547.18
2527.54
2505.7
2481.55
2455.1
2425.97
2394.01
2358.91
2321.22
2280.36
2237.36
2190.7
2140.93
2087.91
2030.26
1971.82
1911.64
1849.6
1783.91
1718.34
1652.9
1588.08
1529.03
1467.33
1407.56
1351.08
1294.8
1243.63
1196.24
1153.2
1116.42
1082.66
1053.1
1024.1
997.621
974.798
933.559
2790
2790.03
2790.61
2794.5
2803.84
2812.91
2815.78
2815.23
2807.79
2794.66
2782.62
2773.14
2764.99
2757.05
2750.16
2746.62
2746.19
2747.77
2751
2753.24
2753.92
2753.78
2752.76
2751.21
2749.75
2748.39
2747.06
2745.8
2744.62
2743.41
2742
2740.24
2738.08
2735.63
2733.03
2730.34
2727.6
2724.82
2722.05
2719.32
2716.68
2714.16
2711.79
2709.58
2707.53
2705.67
2703.99
2702.49
2701.16
2699.99
2698.98
2698.12
2697.4
2696.8
2696.33
2695.97
2695.69
2695.49
2695.34
2695.19
2695.05
2694.88
2694.66
2694.37
2693.95
2693.36
2692.59
2691.59
2690.32
2688.74
2686.81
2684.47
2681.69
2678.38
2674.44
2669.77
2664.3
2657.95
2650.66
2642.33
2632.85
2622.09
2609.93
2596.2
2580.76
2563.42
2544.05
2522.45
2498.51
2471.97
2442.84
2411.02
2376.72
2339.24
2298.78
2254.08
2206.95
2156.57
2103.53
2047.43
1987.06
1924.8
1860.59
1795.81
1731.14
1663.06
1597.88
1534.8
1470.33
1411.61
1352.51
1296.2
1242.94
1192.96
1148.96
1109.91
1076.73
1047.03
1020.43
996.362
947.515
2790
2790.01
2790.34
2793.16
2801.61
2811.67
2815.95
2816.39
2811.15
2798.9
2786.35
2776.57
2768.58
2760.89
2753.61
2748.96
2747.8
2748.73
2751.75
2754.59
2755.77
2755.88
2755.26
2753.87
2752.44
2751.12
2749.86
2748.68
2747.59
2746.49
2745.22
2743.6
2741.6
2739.32
2736.87
2734.35
2731.75
2729.12
2726.48
2723.87
2721.36
2718.97
2716.74
2714.69
2712.82
2711.13
2709.63
2708.32
2707.19
2706.23
2705.43
2704.78
2704.28
2703.92
2703.69
2703.6
2703.59
2703.68
2703.83
2704.02
2704.23
2704.44
2704.62
2704.75
2704.8
2704.71
2704.47
2704.05
2703.4
2702.47
2701.25
2699.68
2697.71
2695.3
2692.33
2688.74
2684.41
2679.3
2673.33
2666.42
2658.48
2649.39
2639.03
2627.27
2613.95
2598.86
2581.84
2562.68
2541.35
2517.63
2491.46
2462.59
2430.99
2396.11
2358.31
2317
2273.43
2226.04
2175.54
2121.87
2063.92
2004.17
1940.81
1874.59
1809.16
1742.59
1671.79
1606.91
1539.95
1476.02
1416.41
1357.49
1301.44
1248.91
1198.25
1150.58
1108.5
1071.2
1041.93
1018.38
971.01
2790
2790.01
2790.17
2792.06
2799.28
2809.94
2815.88
2817.47
2814.09
2803.06
2790.14
2780.08
2772.27
2764.96
2757.55
2751.89
2749.83
2750.17
2752.55
2755.74
2757.58
2758.02
2757.72
2756.6
2755.22
2753.95
2752.78
2751.7
2750.7
2749.72
2748.59
2747.13
2745.3
2743.17
2740.89
2738.52
2736.08
2733.59
2731.08
2728.6
2726.2
2723.94
2721.85
2719.95
2718.24
2716.73
2715.41
2714.29
2713.36
2712.61
2712.02
2711.58
2711.31
2711.2
2711.21
2711.37
2711.64
2712.01
2712.47
2712.99
2713.54
2714.12
2714.7
2715.25
2715.75
2716.15
2716.42
2716.55
2716.51
2716.23
2715.7
2714.87
2713.69
2712.13
2710.1
2707.52
2704.29
2700.34
2695.62
2690.06
2683.57
2676.03
2667.34
2657.36
2645.96
2632.95
2618.19
2601.5
2582.75
2561.72
2538.39
2512.56
2484.12
2452.55
2418.02
2380.01
2339.34
2294.87
2247.81
2196.97
2142.95
2084.56
2023.6
1958.94
1891.3
1826.24
1755.81
1684.87
1616.04
1544.8
1479
1415.07
1354.34
1300.06
1248.41
1199.43
1153.7
1108.48
1068.34
1035.4
973.575
2790
2790
2790.08
2791.23
2796.98
2807.71
2815.54
2818.4
2816.34
2807.06
2794.2
2783.87
2776.12
2769.21
2761.96
2755.54
2752.31
2751.99
2753.52
2756.73
2759.27
2760.13
2760.09
2759.31
2758.07
2756.87
2755.79
2754.82
2753.95
2753.1
2752.12
2750.83
2749.16
2747.21
2745.09
2742.88
2740.6
2738.25
2735.88
2733.53
2731.25
2729.11
2727.15
2725.39
2723.83
2722.48
2721.34
2720.41
2719.67
2719.12
2718.74
2718.52
2718.47
2718.59
2718.86
2719.25
2719.79
2720.44
2721.2
2722.04
2722.93
2723.87
2724.82
2725.79
2726.72
2727.59
2728.37
2729.03
2729.55
2729.89
2730.03
2729.91
2729.5
2728.77
2727.62
2726.02
2723.85
2721.04
2717.55
2713.3
2708.23
2702.23
2695.19
2687
2677.55
2666.65
2654.16
2639.85
2623.61
2605.29
2584.81
2561.84
2536.17
2507.51
2476.15
2441.79
2404.75
2363.88
2319.8
2271.19
2219.54
2164.6
2105.67
2044.49
1978.75
1911.05
1842.77
1770.8
1702.26
1629.52
1558.04
1489.25
1420.04
1355.21
1294.72
1239.76
1192.71
1150.49
1111.84
1077.28
1006.45
2790
2790
2790.03
2790.66
2794.87
2805.03
2814.69
2818.88
2817.87
2810.97
2798.63
2787.94
2780.07
2773.52
2766.68
2759.86
2755.38
2754.2
2754.94
2757.66
2760.72
2762.17
2762.39
2761.98
2760.96
2759.86
2758.9
2758.07
2757.33
2756.63
2755.8
2754.69
2753.21
2751.43
2749.48
2747.42
2745.3
2743.1
2740.87
2738.64
2736.49
2734.47
2732.63
2731
2729.58
2728.4
2727.42
2726.67
2726.12
2725.78
2725.61
2725.61
2725.8
2726.14
2726.63
2727.29
2728.09
2729.03
2730.08
2731.23
2732.46
2733.75
2735.08
2736.44
2737.8
2739.13
2740.4
2741.59
2742.68
2743.62
2744.38
2744.94
2745.25
2745.33
2745.04
2744.37
2743.22
2741.5
2739.15
2736.14
2732.4
2727.82
2722.32
2715.79
2708.12
2699.15
2688.74
2676.69
2662.91
2647.18
2629.39
2609.32
2586.86
2561.79
2534.11
2503.26
2469.25
2431.32
2390.31
2345.45
2297.64
2245.8
2190.41
2131.25
2068.45
2000.36
1931.92
1860.32
1788.33
1716.25
1643.44
1573.85
1505.03
1435.68
1369.09
1305.14
1246.25
1193.63
1149.37
1111.98
1036.61
2790
2790
2790.01
2790.32
2793.11
2802.02
2813.09
2818.95
2818.97
2814.65
2803.34
2792.23
2784.14
2777.88
2771.58
2764.74
2759.16
2756.83
2756.8
2758.57
2761.82
2764.04
2764.67
2764.55
2763.86
2762.93
2762.1
2761.43
2760.85
2760.3
2759.63
2758.7
2757.42
2755.82
2754.04
2752.14
2750.17
2748.12
2746.03
2743.94
2741.91
2740.01
2738.29
2736.79
2735.51
2734.47
2733.66
2733.07
2732.71
2732.56
2732.6
2732.83
2733.22
2733.78
2734.52
2735.43
2736.49
2737.69
2739.03
2740.49
2742.04
2743.67
2745.37
2747.12
2748.89
2750.66
2752.41
2754.1
2755.71
2757.23
2758.62
2759.85
2760.87
2761.66
2762.19
2762.41
2762.23
2761.58
2760.39
2758.57
2756.12
2752.94
2748.96
2744.07
2738.16
2731.11
2722.78
2712.97
2701.56
2688.37
2673.29
2656.09
2636.61
2614.57
2589.94
2562.31
2531.76
2497.66
2460.47
2419.4
2375.13
2326.66
2274.53
2218.31
2158.24
2094.52
2026.26
1954.89
1879.3
1804.31
1726.64
1650.12
1575.45
1502.74
1432.67
1368.36
1305.09
1246.05
1192.84
1147.35
1055.44
2790
2790
2790
2790.13
2791.79
2798.95
2810.63
2818.59
2819.89
2817.71
2808.01
2796.71
2788.41
2782.27
2776.47
2769.86
2763.56
2759.86
2759
2759.84
2762.74
2765.67
2766.94
2767.1
2766.78
2766.09
2765.43
2764.92
2764.51
2764.11
2763.61
2762.86
2761.78
2760.38
2758.77
2757.03
2755.2
2753.29
2751.34
2749.39
2747.49
2745.71
2744.11
2742.73
2741.59
2740.68
2740.02
2739.6
2739.42
2739.46
2739.71
2740.14
2740.75
2741.54
2742.52
2743.67
2744.99
2746.46
2748.09
2749.85
2751.72
2753.69
2755.74
2757.87
2760.05
2762.25
2764.45
2766.63
2768.77
2770.85
2772.83
2774.69
2776.4
2777.93
2779.25
2780.28
2780.99
2781.31
2781.22
2780.56
2779.36
2777.46
2774.88
2771.49
2767.22
2761.93
2755.51
2747.78
2738.63
2727.87
2715.38
2700.94
2684.46
2665.7
2644.53
2620.46
2593.44
2563.04
2529.69
2492.69
2452.32
2407.53
2358.87
2306.02
2249.31
2188.81
2123.99
2055.94
1982.98
1909.08
1830.52
1752.22
1672.06
1592.37
1515.17
1443.24
1374.1
1310.07
1252.15
1202.4
1099.9
2790
2790
2790
2790.05
2790.91
2796.12
2807.46
2817.56
2820.63
2819.87
2812.48
2801.53
2792.89
2786.61
2781.14
2774.93
2768.35
2763.45
2761.62
2761.7
2763.71
2767.03
2769.15
2769.78
2769.74
2769.36
2768.89
2768.55
2768.31
2768.07
2767.73
2767.16
2766.28
2765.07
2763.62
2762.04
2760.35
2758.58
2756.77
2754.95
2753.19
2751.54
2750.06
2748.81
2747.79
2747.02
2746.5
2746.24
2746.22
2746.46
2746.89
2747.52
2748.34
2749.36
2750.57
2751.96
2753.52
2755.26
2757.16
2759.21
2761.4
2763.69
2766.09
2768.57
2771.14
2773.76
2776.4
2779.05
2781.69
2784.3
2786.86
2789.33
2791.69
2793.91
2795.97
2797.83
2799.42
2800.67
2801.54
2801.98
2802.01
2801.4
2800.22
2798.3
2795.63
2792.06
2787.52
2781.82
2774.86
2766.43
2756.44
2744.71
2731.08
2715.29
2697.17
2676.4
2653.02
2626.67
2597.42
2564.41
2527.77
2486.74
2441.91
2392.79
2339.43
2281.86
2219.97
2153.69
2083.37
2008.23
1930.78
1849.74
1771.23
1689.83
1606.08
1526.41
1448.47
1376.63
1312.21
1258.38
1154.75
2790
2790
2790
2790.02
2790.41
2793.79
2803.88
2815.7
2820.82
2821.36
2816.7
2806.55
2797.34
2790.71
2785.47
2779.82
2773.39
2767.74
2764.76
2764.12
2765.14
2768.29
2771.25
2772.59
2772.85
2772.74
2772.5
2772.34
2772.28
2772.19
2771.99
2771.59
2770.89
2769.87
2768.59
2767.15
2765.59
2763.95
2762.27
2760.59
2758.96
2757.44
2756.1
2754.97
2754.08
2753.45
2753.07
2752.95
2753.11
2753.5
2754.12
2754.95
2755.98
2757.22
2758.65
2760.28
2762.09
2764.09
2766.26
2768.6
2771.09
2773.7
2776.44
2779.28
2782.22
2785.24
2788.32
2791.42
2794.54
2797.67
2800.77
2803.83
2806.82
2809.71
2812.47
2815.09
2817.51
2819.67
2821.52
2822.97
2824.01
2824.62
2824.75
2824.21
2823.03
2821.06
2818.23
2814.4
2809.47
2803.26
2795.67
2786.52
2775.66
2762.88
2748.02
2730.79
2711.11
2688.5
2662.93
2633.71
2601.07
2564.4
2524.14
2479.57
2430.59
2377.08
2318.82
2256.24
2188.86
2116.03
2040.67
1958.6
1874.27
1791.65
1703.34
1617.78
1534.97
1455.09
1379.53
1314.02
1183.4
2790
2790
2790
2790
2790.16
2792.09
2800.21
2812.92
2820.39
2822.69
2820.24
2811.34
2801.62
2794.69
2789.66
2784.59
2778.6
2772.62
2768.56
2767.14
2767.37
2769.71
2773.15
2775.38
2776.16
2776.29
2776.27
2776.27
2776.38
2776.45
2776.38
2776.13
2775.6
2774.75
2773.63
2772.31
2770.87
2769.35
2767.8
2766.25
2764.76
2763.38
2762.16
2761.17
2760.42
2759.92
2759.69
2759.71
2760.02
2760.57
2761.37
2762.39
2763.62
2765.06
2766.72
2768.57
2770.62
2772.87
2775.31
2777.92
2780.69
2783.62
2786.68
2789.86
2793.16
2796.57
2800.05
2803.59
2807.17
2810.78
2814.41
2818.02
2821.61
2825.13
2828.57
2831.91
2835.11
2838.12
2840.88
2843.34
2845.47
2847.19
2848.47
2849.27
2849.54
2849.14
2848
2846.01
2843.03
2838.93
2833.6
2826.89
2818.66
2808.69
2796.82
2782.79
2766.5
2747.55
2725.85
2700.83
2672.67
2640.73
2605.15
2565.08
2520.58
2471.32
2416.91
2357.81
2293.9
2225.26
2150.84
2073.8
1989.42
1903.66
1815.57
1722.73
1636.61
1553.23
1475.2
1407.62
1272.81
2790
2790
2790
2790
2790.05
2791.02
2796.86
2809.35
2819.5
2823.66
2822.49
2815.67
2805.97
2798.77
2793.81
2789.23
2783.78
2777.85
2773.08
2770.74
2770.36
2771.63
2774.98
2778.07
2779.56
2780.01
2780.15
2780.32
2780.59
2780.81
2780.86
2780.73
2780.34
2779.65
2778.67
2777.47
2776.14
2774.73
2773.3
2771.89
2770.54
2769.3
2768.22
2767.36
2766.74
2766.38
2766.28
2766.48
2766.92
2767.63
2768.6
2769.8
2771.22
2772.87
2774.73
2776.81
2779.1
2781.59
2784.28
2787.16
2790.22
2793.45
2796.82
2800.34
2803.99
2807.76
2811.64
2815.6
2819.62
2823.7
2827.83
2831.98
2836.13
2840.26
2844.34
2848.37
2852.3
2856.11
2859.73
2863.12
2866.22
2869.01
2871.45
2873.46
2874.99
2875.97
2876.38
2876.08
2874.93
2872.84
2869.64
2865.25
2859.53
2852.29
2843.37
2832.55
2819.67
2804.34
2786.45
2765.53
2741.68
2714.22
2683.18
2647.7
2607.86
2563.23
2513.63
2459.2
2399.08
2334.01
2263.56
2187.5
2107.59
2018.77
1933.27
1835.04
1737.73
1644.5
1554.39
1476.66
1321.85
2790
2790
2790
2790
2790.02
2790.43
2794.17
2805.31
2817.83
2823.91
2823.88
2819.6
2810.46
2802.94
2797.87
2793.65
2788.8
2783.25
2778.19
2775
2773.97
2774.4
2776.97
2780.53
2782.84
2783.75
2784.11
2784.4
2784.8
2785.2
2785.37
2785.33
2785.07
2784.52
2783.66
2782.57
2781.33
2780.04
2778.73
2777.45
2776.23
2775.14
2774.2
2773.48
2772.99
2772.79
2772.84
2773.19
2773.78
2774.64
2775.77
2777.15
2778.76
2780.6
2782.66
2784.95
2787.46
2790.18
2793.12
2796.26
2799.59
2803.1
2806.78
2810.61
2814.59
2818.71
2822.96
2827.32
2831.76
2836.28
2840.88
2845.53
2850.22
2854.91
2859.61
2864.28
2868.9
2873.45
2877.88
2882.14
2886.19
2889.98
2893.49
2896.68
2899.48
2901.84
2903.65
2904.88
2905.45
2905.31
2904.14
2901.97
2898.55
2893.86
2887.67
2879.8
2870.08
2858.19
2844.04
2827.2
2807.65
2784.65
2758.21
2727.56
2692.86
2653.49
2609.3
2560.06
2505
2444.46
2377.76
2305.39
2227.37
2144.66
2054.33
1964.35
1862.12
1767.01
1669.19
1582.09
1408.75
2790
2790
2790
2790
2790
2790.16
2792.28
2801.27
2815.02
2823.59
2824.94
2822.86
2814.79
2806.97
2801.78
2797.91
2793.68
2788.65
2783.62
2779.79
2777.99
2777.77
2779.19
2782.68
2785.81
2787.36
2787.98
2788.39
2788.9
2789.45
2789.79
2789.85
2789.7
2789.26
2788.52
2787.52
2786.38
2785.19
2784.01
2782.87
2781.8
2780.85
2780.07
2779.48
2779.15
2779.07
2779.3
2779.78
2780.53
2781.55
2782.85
2784.39
2786.18
2788.2
2790.46
2792.95
2795.68
2798.63
2801.8
2805.18
2808.78
2812.56
2816.53
2820.67
2824.97
2829.43
2834.04
2838.78
2843.62
2848.57
2853.61
2858.74
2863.93
2869.17
2874.44
2879.72
2884.99
2890.23
2895.41
2900.48
2905.4
2910.13
2914.64
2918.89
2922.84
2926.43
2929.62
2932.31
2934.4
2935.83
2936.55
2936.54
2935.33
2933.11
2929.49
2924.46
2917.78
2909.23
2898.66
2885.66
2870.11
2851.39
2829.52
2803.83
2774.41
2740.48
2701.82
2657.93
2608.17
2552.81
2490.9
2423.2
2348.48
2267.48
2180.73
2089.37
1986.63
1883.88
1782.83
1697.14
1532.11
2790
2790
2790
2790
2790
2790.05
2791.12
2797.69
2811.38
2822.55
2825.92
2825.11
2818.64
2810.86
2805.66
2802.09
2798.38
2793.82
2788.95
2784.77
2782.21
2781.39
2781.91
2784.71
2788.36
2790.67
2791.69
2792.27
2792.86
2793.54
2794.06
2794.24
2794.17
2793.83
2793.18
2792.28
2791.23
2790.15
2789.1
2788.1
2787.19
2786.4
2785.76
2785.33
2785.14
2785.22
2785.59
2786.23
2787.13
2788.32
2789.77
2791.49
2793.45
2795.65
2798.1
2800.79
2803.71
2806.88
2810.27
2813.89
2817.73
2821.78
2826.03
2830.46
2835.06
2839.84
2844.78
2849.87
2855.09
2860.43
2865.89
2871.46
2877.13
2882.87
2888.67
2894.52
2900.39
2906.28
2912.16
2917.98
2923.71
2929.31
2934.76
2940.01
2945.04
2949.8
2954.24
2958.3
2961.9
2964.98
2967.37
2969.07
2969.96
2970.07
2968.87
2966.51
2962.65
2957.2
2949.97
2940.62
2928.99
2914.56
2897.34
2876.64
2852.45
2823.87
2790.75
2752.46
2708.59
2659.01
2602.72
2540.47
2471.09
2394.98
2310.93
2219.13
2127.99
2015.94
1905.05
1802.64
1610.03
2790
2790
2790
2790
2790
2790.02
2790.5
2794.86
2807.4
2820.85
2826.34
2826.49
2822.11
2814.75
2809.47
2806.02
2802.69
2798.53
2793.91
2789.68
2786.59
2785.19
2785.12
2786.86
2790.58
2793.68
2795.25
2796.04
2796.71
2797.46
2798.12
2798.43
2798.43
2798.17
2797.6
2796.78
2795.83
2794.86
2793.95
2793.11
2792.36
2791.73
2791.25
2790.98
2790.92
2791.17
2791.69
2792.48
2793.55
2794.89
2796.51
2798.39
2800.53
2802.91
2805.54
2808.41
2811.54
2814.91
2818.52
2822.36
2826.44
2830.74
2835.24
2839.95
2844.84
2849.92
2855.19
2860.62
2866.2
2871.91
2877.77
2883.76
2889.87
2896.08
2902.39
2908.77
2915.21
2921.7
2928.21
2934.73
2941.21
2947.62
2953.92
2960.09
2966.1
2971.93
2977.51
2982.8
2987.74
2992.25
2996.27
2999.72
3002.45
3004.42
3005.52
3005.72
3004.54
3002.05
2997.93
2991.99
2984.05
2973.7
2960.88
2944.88
2925.65
2902.29
2874.8
2842.41
2804.78
2761.46
2711.61
2655.49
2591.74
2520.93
2441.83
2355.32
2261.18
2165.42
2055.04
1956.67
1773.07
2790
2790
2790
2790
2790
2790
2790.2
2792.86
2803.51
2818.46
2826.08
2827.64
2825.14
2818.46
2812.94
2809.54
2806.56
2802.83
2798.54
2794.44
2791.15
2789.22
2788.68
2789.51
2792.75
2796.46
2798.65
2799.73
2800.48
2801.27
2802.02
2802.45
2802.51
2802.31
2801.79
2801.03
2800.17
2799.32
2798.55
2797.87
2797.29
2796.82
2796.51
2796.38
2796.49
2796.88
2797.55
2798.51
2799.73
2801.24
2803.03
2805.08
2807.38
2809.94
2812.75
2815.81
2819.12
2822.69
2826.5
2830.56
2834.86
2839.39
2844.15
2849.11
2854.28
2859.64
2865.2
2870.95
2876.86
2882.93
2889.15
2895.52
2902.04
2908.69
2915.46
2922.33
2929.29
2936.33
2943.44
2950.59
2957.75
2964.9
2971.99
2979
2985.93
2992.73
2999.37
3005.81
3011.99
3017.84
3023.32
3028.33
3032.83
3036.72
3039.81
3042.07
3043.35
3043.65
3042.46
3039.78
3035.34
3028.84
3020.16
3008.63
2994.21
2976.09
2954.28
2927.86
2896.57
2859.73
2816.6
2766.89
2709.29
2644.26
2570.58
2488.57
2397.07
2295.91
2187.33
2075.94
1885.96
2790
2790
2790
2790
2790
2790
2790.08
2791.59
2800.06
2815.54
2825.42
2828.82
2827.5
2821.56
2816.01
2812.73
2810.15
2806.88
2802.93
2799.06
2795.77
2793.45
2792.5
2792.72
2795.08
2799.06
2801.93
2803.39
2804.26
2805.07
2805.84
2806.33
2806.44
2806.26
2805.77
2805.07
2804.28
2803.54
2802.91
2802.38
2801.96
2801.66
2801.51
2801.54
2801.81
2802.34
2803.17
2804.28
2805.67
2807.34
2809.29
2811.51
2813.99
2816.72
2819.7
2822.94
2826.44
2830.19
2834.2
2838.46
2842.97
2847.73
2852.72
2857.93
2863.36
2868.99
2874.83
2880.87
2887.09
2893.49
2900.06
2906.79
2913.7
2920.75
2927.95
2935.27
2942.72
2950.27
2957.92
2965.66
2973.45
2981.26
2989.08
2996.87
3004.61
3012.3
3019.89
3027.36
3034.65
3041.71
3048.5
3054.93
3060.97
3066.53
3071.53
3075.86
3079.33
3081.89
3083.38
3083.78
3082.57
3079.66
3074.76
3067.42
3057.61
3044.59
3028.35
3007.86
2982.97
2952.72
2916.44
2873.64
2823.43
2766.03
2699.76
2624.43
2538.48
2444.45
2341.04
2233.75
2053.22
2790
2790
2790
2790
2790
2790
2790.03
2790.86
2797.26
2812.38
2824.67
2829.63
2829.01
2824.23
2818.85
2815.72
2813.53
2810.72
2807.09
2803.42
2800.24
2797.77
2796.48
2796.29
2797.79
2801.67
2805.17
2807.09
2808.11
2808.91
2809.65
2810.13
2810.24
2810.06
2809.59
2808.93
2808.2
2807.56
2807.04
2806.66
2806.39
2806.25
2806.25
2806.45
2806.86
2807.55
2808.53
2809.8
2811.34
2813.18
2815.29
2817.68
2820.33
2823.23
2826.39
2829.8
2833.48
2837.41
2841.61
2846.06
2850.78
2855.74
2860.95
2866.4
2872.06
2877.95
2884.05
2890.36
2896.88
2903.58
2910.46
2917.53
2924.78
2932.21
2939.8
2947.54
2955.42
2963.44
2971.58
2979.84
2988.19
2996.62
3005.08
3013.57
3022.06
3030.55
3039.01
3047.4
3055.7
3063.86
3071.83
3079.56
3087
3094.08
3100.75
3106.89
3112.42
3117.22
3121.09
3123.98
3125.69
3126.16
3124.87
3121.61
3116.2
3108.02
3097.01
3082.14
3063.33
3039.43
3010.06
2974.41
2931.54
2881.11
2821.68
2752.98
2673
2583.97
2480.6
2374.45
2206.09
2790
2790
2790
2790
2790
2790
2790.01
2790.47
2795.18
2809.36
2823.74
2830.09
2830.03
2826.51
2821.46
2818.53
2816.71
2814.31
2810.95
2807.46
2804.46
2802.04
2800.55
2800.1
2801
2804.46
2808.44
2810.83
2812.01
2812.77
2813.43
2813.85
2813.94
2813.75
2813.27
2812.64
2811.96
2811.4
2810.98
2810.72
2810.59
2810.59
2810.75
2811.08
2811.65
2812.48
2813.61
2815.03
2816.74
2818.73
2821.01
2823.57
2826.39
2829.46
2832.79
2836.37
2840.22
2844.33
2848.7
2853.34
2858.25
2863.41
2868.83
2874.49
2880.39
2886.51
2892.85
2899.42
2906.2
2913.19
2920.36
2927.74
2935.31
2943.08
2951.03
2959.15
2967.44
2975.88
2984.48
2993.21
3002.08
3011.06
3020.11
3029.23
3038.4
3047.61
3056.83
3066.06
3075.26
3084.39
3093.41
3102.28
3110.96
3119.4
3127.55
3135.32
3142.63
3149.38
3155.46
3160.78
3165.08
3168.3
3170.22
3170.76
3169.33
3165.6
3159.35
3149.73
3136.79
3119.33
3097.16
3069.14
3034.41
2992.26
2941.25
2880.41
2808.09
2723.85
2626.04
2518.36
2362.24
2790
2790
2790
2790
2790
2790
2790.01
2790.26
2793.76
2806.76
2822.57
2830.34
2830.86
2828.42
2823.83
2821.14
2819.63
2817.57
2814.48
2811.18
2808.41
2806.19
2804.66
2804.07
2804.61
2807.51
2811.73
2814.52
2815.85
2816.57
2817.11
2817.44
2817.49
2817.27
2816.79
2816.18
2815.56
2815.06
2814.72
2814.57
2814.56
2814.7
2814.99
2815.46
2816.17
2817.15
2818.42
2820
2821.87
2824.02
2826.46
2829.18
2832.16
2835.4
2838.89
2842.65
2846.66
2850.94
2855.49
2860.31
2865.4
2870.75
2876.36
2882.23
2888.34
2894.68
2901.25
2908.05
2915.08
2922.33
2929.77
2937.43
2945.3
2953.38
2961.66
2970.13
2978.78
2987.6
2996.6
3005.77
3015.09
3024.56
3034.14
3043.82
3053.59
3063.43
3073.34
3083.31
3093.3
3103.29
3113.25
3123.14
3132.92
3142.56
3152.02
3161.23
3170.13
3178.61
3186.62
3194.03
3200.74
3206.63
3211.4
3214.96
3217.08
3217.61
3215.9
3211.53
3204.35
3193.34
3178.33
3157.88
3131.26
3097.46
3055.13
3003.47
2940.39
2863.54
2773.71
2666.81
2521.27
2790
2790
2790
2790
2790
2790
2790
2790.16
2792.84
2804.73
2821.4
2830.45
2831.63
2830.02
2825.95
2823.52
2822.26
2820.53
2817.73
2814.64
2812.14
2810.2
2808.73
2808.09
2808.41
2810.76
2814.96
2818.06
2819.5
2820.14
2820.55
2820.77
2820.76
2820.53
2820.07
2819.5
2818.94
2818.5
2818.25
2818.18
2818.31
2818.56
2818.98
2819.59
2820.43
2821.55
2822.97
2824.7
2826.72
2829.03
2831.63
2834.5
2837.65
2841.05
2844.7
2848.62
2852.8
2857.25
2861.97
2866.96
2872.22
2877.75
2883.55
2889.6
2895.91
2902.45
2909.24
2916.26
2923.52
2931
2938.69
2946.61
2954.75
2963.11
2971.68
2980.47
2989.45
2998.62
3007.99
3017.54
3027.27
3037.18
3047.23
3057.41
3067.71
3078.13
3088.65
3099.27
3109.96
3120.72
3131.49
3142.27
3153.01
3163.7
3174.3
3184.77
3195.04
3205.05
3214.73
3223.99
3232.75
3240.9
3248.28
3254.77
3260.02
3263.96
3266.29
3266.82
3264.76
3259.53
3250.75
3237.15
3218.35
3192.95
3159.44
3116.66
3061.37
2991.72
2908.11
2804.94
2667.48
2790
2790
2790
2790
2790
2790
2790
2790.12
2792.29
2803.32
2820.48
2830.52
2832.4
2831.36
2827.79
2825.65
2824.65
2823.25
2820.75
2817.89
2815.66
2813.99
2812.65
2812.01
2812.17
2814.09
2818.09
2821.34
2822.81
2823.35
2823.59
2823.7
2823.65
2823.41
2823.01
2822.51
2822.03
2821.68
2821.52
2821.56
2821.8
2822.17
2822.72
2823.46
2824.43
2825.69
2827.26
2829.14
2831.31
2833.77
2836.52
2839.56
2842.86
2846.42
2850.23
2854.31
2858.65
2863.26
2868.14
2873.29
2878.72
2884.42
2890.39
2896.63
2903.12
2909.86
2916.84
2924.07
2931.54
2939.24
2947.16
2955.31
2963.7
2972.32
2981.16
2990.23
2999.51
3009
3018.69
3028.59
3038.69
3048.98
3059.45
3070.07
3080.85
3091.76
3102.82
3114.01
3125.32
3136.74
3148.23
3159.78
3171.37
3182.96
3194.55
3206.11
3217.57
3228.9
3240.03
3250.9
3261.45
3271.57
3281.17
3290.13
3298.26
3305.46
3311.26
3315.58
3318.03
3318.41
3315.62
3309.16
3298.39
3282.02
3258.92
3227.83
3184.6
3126.74
3050.97
2952.68
2820.62
2790
2790
2790
2790
2790
2790
2790
2790.1
2792.04
2802.52
2819.99
2830.64
2833.18
2832.44
2829.36
2827.59
2826.86
2825.77
2823.58
2820.95
2818.96
2817.54
2816.35
2815.73
2815.78
2817.38
2821.08
2824.28
2825.68
2826.07
2826.14
2826.13
2826.05
2825.85
2825.53
2825.13
2824.77
2824.53
2824.48
2824.67
2825.03
2825.53
2826.2
2827.07
2828.18
2829.58
2831.29
2833.32
2835.64
2838.26
2841.16
2844.35
2847.8
2851.51
2855.48
2859.72
2864.21
2868.98
2874.01
2879.32
2884.91
2890.77
2896.91
2903.31
2909.98
2916.9
2924.06
2931.48
2939.14
2947.04
2955.17
2963.54
2972.15
2981
2990.09
2999.42
3008.96
3018.73
3028.72
3038.93
3049.35
3059.99
3070.83
3081.85
3093.04
3104.4
3115.93
3127.62
3139.47
3151.46
3163.58
3175.81
3188.12
3200.51
3212.95
3225.44
3237.94
3250.39
3262.77
3275.01
3287.08
3298.9
3310.41
3321.48
3332.02
3341.89
3350.85
3358.82
3365.2
3370
3372.71
3373.07
3369.54
3361.66
3347.96
3327.35
3295.62
3250.02
3182.89
3092.75
2965.7
2790
2790
2790
2790
2790
2790
2790
2790.1
2792
2802.35
2819.95
2830.98
2833.94
2833.33
2830.75
2829.39
2828.93
2828.13
2826.21
2823.8
2822.04
2820.83
2819.81
2819.22
2819.19
2820.56
2823.87
2826.85
2828.07
2828.25
2828.16
2828.05
2827.97
2827.83
2827.61
2827.35
2827.11
2827.01
2827.13
2827.48
2827.98
2828.62
2829.43
2830.44
2831.69
2833.22
2835.08
2837.26
2839.73
2842.5
2845.55
2848.89
2852.49
2856.35
2860.48
2864.86
2869.51
2874.42
2879.61
2885.07
2890.81
2896.83
2903.13
2909.69
2916.52
2923.61
2930.94
2938.54
2946.38
2954.47
2962.79
2971.36
2980.18
2989.25
2998.56
3008.12
3017.91
3027.94
3038.19
3048.68
3059.4
3070.35
3081.51
3092.88
3104.45
3116.2
3128.14
3140.28
3152.61
3165.11
3177.77
3190.59
3203.54
3216.6
3229.79
3243.08
3256.46
3269.88
3283.32
3296.74
3310.1
3323.37
3336.48
3349.37
3361.95
3374.1
3385.71
3396.64
3406.62
3415.56
3422.66
3427.98
3430.7
3430.44
3424.91
3414.72
3396.33
3366.92
3314.33
3240.35
3118.29
2790
2790
2790
2790
2790
2790
2790
2790.1
2792.06
2802.67
2820.43
2831.55
2834.67
2834.12
2832.04
2831.12
2830.88
2830.34
2828.66
2826.47
2824.93
2823.91
2823.03
2822.48
2822.37
2823.52
2826.39
2829
2829.95
2829.9
2829.68
2829.5
2829.44
2829.38
2829.27
2829.13
2829.05
2829.13
2829.44
2829.97
2830.63
2831.43
2832.39
2833.54
2834.94
2836.62
2838.63
2840.96
2843.59
2846.5
2849.71
2853.19
2856.94
2860.94
2865.21
2869.74
2874.53
2879.59
2884.93
2890.54
2896.42
2902.59
2909.04
2915.76
2922.74
2929.99
2937.49
2945.24
2953.26
2961.52
2970.03
2978.78
2987.79
2997.06
3006.58
3016.35
3026.36
3036.62
3047.13
3057.87
3068.85
3080.08
3091.54
3103.23
3115.12
3127.23
3139.54
3152.08
3164.82
3177.77
3190.92
3204.25
3217.75
3231.42
3245.25
3259.24
3273.38
3287.63
3301.98
3316.4
3330.87
3345.36
3359.83
3374.24
3388.53
3402.61
3416.43
3429.84
3442.73
3454.91
3466.07
3476.1
3484.06
3490.11
3493.13
3492.89
3486.17
3471.17
3436.44
3387.28
3285.58
2790
2790
2790
2790
2790
2790
2790
2790.12
2792.34
2803.59
2821.46
2832.28
2835.34
2834.87
2833.28
2832.76
2832.76
2832.4
2830.92
2828.98
2827.67
2826.83
2826.05
2825.5
2825.26
2826.16
2828.56
2830.67
2831.34
2831.11
2830.77
2830.56
2830.52
2830.55
2830.53
2830.52
2830.6
2830.88
2831.41
2832.13
2832.99
2833.97
2835.09
2836.4
2837.95
2839.8
2841.96
2844.45
2847.23
2850.29
2853.64
2857.27
2861.16
2865.31
2869.72
2874.39
2879.32
2884.52
2890
2895.75
2901.78
2908.09
2914.68
2921.55
2928.69
2936.08
2943.74
2951.65
2959.82
2968.25
2976.93
2985.86
2995.04
3004.5
3014.21
3024.18
3034.41
3044.88
3055.61
3066.59
3077.82
3089.3
3101.03
3113.01
3125.2
3137.63
3150.28
3163.17
3176.3
3189.65
3203.23
3217.02
3231.02
3245.21
3259.61
3274.21
3289.01
3303.99
3319.12
3334.41
3349.82
3365.35
3380.98
3396.67
3412.39
3428.1
3443.74
3459.23
3474.5
3489.4
3503.82
3517.58
3530.34
3541.86
3550.99
3557.8
3561
3558.69
3543.43
3516.96
3455.68
2790
2790
2790
2790
2790
2790
2790
2790.17
2792.86
2805.06
2822.9
2833.12
2835.99
2835.63
2834.5
2834.32
2834.57
2834.32
2833.02
2831.35
2830.27
2829.56
2828.81
2828.2
2827.78
2828.36
2830.29
2831.89
2832.28
2831.94
2831.52
2831.3
2831.27
2831.38
2831.44
2831.55
2831.81
2832.32
2833.08
2834.02
2835.08
2836.24
2837.54
2839.01
2840.73
2842.74
2845.07
2847.71
2850.64
2853.86
2857.36
2861.12
2865.15
2869.43
2873.98
2878.79
2883.86
2889.2
2894.82
2900.71
2906.87
2913.33
2920.06
2927.07
2934.35
2941.89
2949.69
2957.75
2966.08
2974.66
2983.5
2992.59
3001.95
3011.58
3021.48
3031.64
3042.06
3052.74
3063.68
3074.88
3086.35
3098.07
3110.06
3122.3
3134.78
3147.5
3160.47
3173.69
3187.16
3200.88
3214.85
3229.07
3243.51
3258.18
3273.09
3288.24
3303.63
3319.24
3335.07
3351.1
3367.33
3383.76
3400.37
3417.14
3434.07
3451.11
3468.25
3485.44
3502.65
3519.78
3536.78
3553.47
3569.71
3585.3
3599.86
3613.16
3624.16
3632.31
3635.29
3626.2
3607.1
2790
2790
2790
2790
2790
2790
2790.01
2790.25
2793.68
2807.05
2824.66
2834.01
2836.61
2836.42
2835.73
2835.83
2836.35
2836.14
2834.98
2833.58
2832.69
2832.05
2831.21
2830.44
2829.81
2830.02
2831.53
2832.67
2832.82
2832.41
2831.95
2831.73
2831.72
2831.88
2832.04
2832.3
2832.76
2833.48
2834.47
2835.64
2836.91
2838.27
2839.75
2841.41
2843.3
2845.48
2847.98
2850.78
2853.87
2857.23
2860.87
2864.77
2868.93
2873.35
2878.03
2882.97
2888.18
2893.65
2899.39
2905.42
2911.72
2918.31
2925.18
2932.33
2939.75
2947.43
2955.37
2963.57
2972.05
2980.78
2989.76
2999.02
3008.54
3018.33
3028.4
3038.74
3049.35
3060.22
3071.36
3082.77
3094.45
3106.4
3118.62
3131.1
3143.85
3156.84
3170.1
3183.62
3197.41
3211.47
3225.8
3240.39
3255.24
3270.34
3285.71
3301.35
3317.26
3333.44
3349.87
3366.56
3383.5
3400.69
3418.14
3435.82
3453.75
3471.91
3490.27
3508.83
3527.56
3546.43
3565.39
3584.36
3603.27
3621.99
3640.31
3658.03
3674.61
3689.62
3701.82
3707.52
3713.85
2790
2790
2790
2790
2790
2790
2790.01
2790.41
2794.86
2809.51
2826.61
2834.9
2837.24
2837.24
2836.95
2837.4
2838.09
2837.88
2836.81
2835.63
2834.84
2834.12
2833.1
2832.06
2831.21
2831.12
2832.26
2833.07
2833.02
2832.59
2832.11
2831.91
2831.93
2832.17
2832.41
2832.81
2833.46
2834.42
2835.64
2837.03
2838.5
2840.06
2841.73
2843.58
2845.65
2848.01
2850.68
2853.64
2856.88
2860.39
2864.17
2868.21
2872.5
2877.05
2881.86
2886.93
2892.26
2897.86
2903.73
2909.89
2916.32
2923.04
2930.04
2937.32
2944.87
2952.69
2960.76
2969.11
2977.71
2986.59
2995.72
3005.13
3014.81
3024.76
3035
3045.51
3056.29
3067.35
3078.68
3090.29
3102.17
3114.34
3126.78
3139.51
3152.5
3165.75
3179.28
3193.09
3207.18
3221.56
3236.22
3251.17
3266.39
3281.88
3297.66
3313.74
3330.12
3346.8
3363.77
3381.02
3398.57
3416.41
3434.56
3453.01
3471.76
3490.8