/*--------------------------------*- C++ -*----------------------------------*\
| =========                 |                                                 |
| \\      /  F ield         | OpenFOAM: The Open Source CFD Toolbox           |
|  \\    /   O peration     | Version:  2406                                  |
|   \\  /    A nd           | Website:  www.openfoam.com                      |
|    \\/     M anipulation  |                                                 |
\*---------------------------------------------------------------------------*/
FoamFile
{
    version     2.0;
    format      ascii;
    arch        "LSB;label=32;scalar=64";
    class       volScalarField;
    location    "0.051";
    object      p;
}
// * * * * * * * * * * * * * * * * * * * * * * * * * * * * * * * * * * * * * //

dimensions      [1 -1 -2 0 0 0 0];

internalField   nonuniform List<scalar> 
78650
(
3647.22
2888.04
2829.16
2822.23
2812.83
2805.95
2799.45
2794.08
2789.59
2784.89
2779.84
2774.52
2769.22
2764.18
2759.5
2755.13
2750.96
2746.84
2742.73
2738.6
2734.43
2730.24
2726.03
2721.83
2717.72
2713.8
2710.19
2707
2704.31
2702.13
2700.42
2699.11
2698.12
2697.35
2696.74
2696.19
2695.67
2695.13
2694.54
2693.89
2693.16
2692.33
2691.42
2690.4
2689.28
2688.05
2686.68
2685.16
2683.47
2681.59
2679.5
2677.17
2674.58
2671.69
2668.47
2664.89
2660.87
2656.37
2651.33
2645.7
2639.43
2632.47
2624.76
2616.21
2606.78
2596.37
2584.91
2572.28
2558.39
2543.19
2526.61
2508.59
2489.09
2468
2445.27
2420.87
2394.72
2366.82
2337.23
2305.86
2272.75
2237.84
2201
2162.36
2121.86
2079.82
2036.86
1993.5
1949.32
1903.91
1858.96
1813.52
1768.03
1723.18
1678.25
1634.69
1593.86
1555.95
1520.43
1484.99
1449.92
1417.31
1385.99
1356.44
1328.28
1300.44
1274.69
1251.14
1229.92
1210.9
1193.81
1177.83
1162.8
1148.64
1135.53
1123.72
1113.25
1103.38
1094.02
1085.85
1069.51
3616.73
2881.1
2833.06
2826.51
2817.51
2810.42
2803.42
2797.46
2792.31
2787.23
2782.08
2776.86
2771.67
2766.71
2762.1
2757.87
2753.9
2750.03
2746.19
2742.29
2738.33
2734.32
2730.3
2726.3
2722.37
2718.61
2715.11
2711.98
2709.28
2707.07
2705.33
2704.02
2703.05
2702.37
2701.88
2701.52
2701.23
2700.96
2700.68
2700.36
2699.98
2699.53
2699.01
2698.4
2697.7
2696.91
2696.01
2694.97
2693.79
2692.44
2690.91
2689.18
2687.21
2684.98
2682.45
2679.61
2676.39
2672.73
2668.59
2663.92
2658.66
2652.79
2646.23
2638.91
2630.79
2621.76
2611.78
2600.74
2588.53
2575.1
2560.35
2544.21
2526.65
2507.59
2486.99
2464.79
2440.87
2415.19
2387.73
2358.36
2327.17
2294.18
2259.43
2223.17
2185.28
2145.9
2104.97
2062.33
2018.59
1973.71
1928.98
1884.62
1839.85
1796.34
1753.35
1710.96
1669.15
1627
1586.75
1548.42
1510.61
1475.23
1441.36
1409.35
1380.42
1351.68
1324.45
1298.22
1274.03
1251.6
1230.95
1211.43
1193.17
1176.16
1160.29
1145.54
1131.86
1119.14
1107.95
1098.16
1078.37
3589.61
2870.72
2835.87
2829.47
2820.63
2813.61
2806.52
2800.15
2794.57
2789.25
2784.18
2779.18
2774.21
2769.4
2764.88
2760.74
2756.91
2753.27
2749.69
2746.05
2742.3
2738.48
2734.62
2730.78
2727.04
2723.47
2720.13
2717.12
2714.51
2712.33
2710.62
2709.32
2708.39
2707.78
2707.4
2707.18
2707.08
2707.05
2707.04
2707.02
2706.98
2706.89
2706.74
2706.53
2706.25
2705.9
2705.46
2704.9
2704.22
2703.4
2702.43
2701.28
2699.92
2698.34
2696.5
2694.38
2691.93
2689.1
2685.83
2682.08
2677.8
2672.96
2667.5
2661.36
2654.47
2646.75
2638.16
2628.59
2617.93
2606.13
2593.09
2578.77
2563.14
2546.08
2527.51
2507.36
2485.55
2462.1
2436.97
2410.03
2381.34
2350.85
2318.54
2284.41
2248.31
2210.57
2171.13
2130.47
2088.65
2046.14
2002.79
1958.99
1913.86
1868.87
1824.04
1778.85
1734.91
1691.56
1648.6
1607.63
1566.79
1527.92
1492.04
1456.93
1424.44
1392.52
1362.6
1334.7
1309.13
1285.29
1263.24
1242.38
1223.15
1205.31
1189
1174.04
1160.11
1146.77
1134.57
1123.58
1100.45
3566.18
2861.2
2836.06
2830.39
2821.88
2814.95
2807.78
2801.43
2795.74
2790.42
2785.65
2781.1
2776.58
2772.11
2767.78
2763.74
2760.01
2756.55
2753.23
2749.88
2746.38
2742.75
2739.05
2735.36
2731.77
2728.37
2725.21
2722.37
2719.89
2717.82
2716.18
2714.94
2714.07
2713.53
2713.25
2713.17
2713.23
2713.4
2713.63
2713.89
2714.14
2714.38
2714.59
2714.76
2714.88
2714.94
2714.95
2714.86
2714.66
2714.35
2713.91
2713.33
2712.56
2711.6
2710.43
2709
2707.29
2705.25
2702.83
2699.98
2696.65
2692.83
2688.44
2683.44
2677.77
2671.36
2664.15
2656.05
2646.97
2636.85
2625.59
2613.12
2599.4
2584.28
2567.76
2549.77
2530.23
2509.11
2486.29
2461.62
2435.14
2406.83
2376.68
2344.79
2311.09
2275.75
2238.51
2199.76
2159.38
2117.54
2074.48
2030.05
1984.53
1938.59
1893.56
1848.06
1802.92
1758.62
1714.66
1671.89
1630.66
1590.14
1552.63
1514.78
1478.59
1444.03
1411.08
1380.77
1352.02
1324.37
1297.97
1272.57
1248.97
1227.56
1208.5
1191.66
1176.44
1162.51
1150.35
1140.01
1120.44
3543.6
2853.68
2835.9
2830.54
2821.92
2814.97
2807.88
2801.56
2795.73
2790.54
2786.04
2781.95
2778.09
2774.21
2770.33
2766.56
2763.01
2759.77
2756.71
2753.65
2750.46
2747.08
2743.57
2740.02
2736.57
2733.32
2730.34
2727.67
2725.37
2723.46
2721.97
2720.85
2720.1
2719.68
2719.52
2719.57
2719.81
2720.16
2720.61
2721.11
2721.65
2722.2
2722.74
2723.27
2723.77
2724.24
2724.66
2725.03
2725.31
2725.5
2725.58
2725.56
2725.37
2725.03
2724.51
2723.76
2722.77
2721.51
2719.91
2717.92
2715.52
2712.67
2709.32
2705.42
2700.91
2695.73
2689.83
2683.11
2675.51
2666.95
2657.33
2646.58
2634.66
2621.48
2607.01
2591.14
2573.78
2554.86
2534.32
2512.06
2488.14
2462.46
2434.98
2405.66
2374.36
2341.08
2305.72
2268.76
2230.07
2190.35
2149.38
2106.97
2063.84
2019.2
1974.52
1928.69
1883.7
1838.38
1793.79
1749.15
1705.8
1662.43
1621.48
1581.46
1542.57
1506.29
1471.1
1438.49
1407.39
1377.14
1348.65
1320.87
1294.59
1269.42
1245.64
1223.12
1201.73
1181.84
1164.38
1149.58
1123.35
3520.64
2847.14
2834.29
2829.52
2820.77
2813.93
2807.12
2800.93
2795.09
2790.09
2785.77
2781.97
2778.5
2775.18
2771.9
2768.65
2765.53
2762.66
2759.93
2757.23
2754.4
2751.35
2748.1
2744.73
2741.43
2738.32
2735.5
2733.01
2730.9
2729.18
2727.86
2726.92
2726.34
2726.08
2726.07
2726.3
2726.7
2727.24
2727.9
2728.64
2729.44
2730.27
2731.13
2731.99
2732.86
2733.71
2734.54
2735.34
2736.08
2736.75
2737.33
2737.82
2738.21
2738.46
2738.55
2738.47
2738.18
2737.67
2736.87
2735.71
2734.21
2732.3
2729.95
2727.13
2723.76
2719.8
2715.19
2709.86
2703.73
2696.74
2688.78
2679.81
2669.76
2658.52
2646.06
2632.27
2617.07
2600.42
2582.22
2562.36
2540.84
2517.5
2492.35
2465.41
2436.61
2405.92
2373.31
2339.04
2302.87
2265.24
2225.68
2184.73
2142.22
2098.28
2053.47
2007.71
1961.79
1915.7
1870.06
1824.39
1779.51
1733.83
1689.24
1646.75
1604.81
1566.02
1527.81
1491.42
1456.69
1422.84
1392.09
1363.15
1336.94
1312.11
1288.84
1267.26
1247.01
1228
1210.06
1193.21
1160.59
3497.51
2840.46
2831.64
2827.42
2818.35
2811.54
2805.03
2798.98
2793.56
2788.88
2784.86
2781.39
2778.24
2775.24
2772.31
2769.49
2766.95
2764.68
2762.52
2760.33
2757.97
2755.36
2752.48
2749.38
2746.26
2743.32
2740.65
2738.33
2736.41
2734.9
2733.8
2733.07
2732.72
2732.66
2732.88
2733.31
2733.92
2734.68
2735.56
2736.54
2737.6
2738.71
2739.86
2741.05
2742.26
2743.48
2744.7
2745.91
2747.1
2748.23
2749.31
2750.33
2751.26
2752.09
2752.79
2753.34
2753.73
2753.92
2753.91
2753.57
2752.95
2751.96
2750.57
2748.77
2746.49
2743.68
2740.29
2736.26
2731.51
2725.98
2719.58
2712.25
2703.92
2694.5
2683.97
2672.22
2659.16
2644.74
2628.84
2611.39
2592.4
2571.73
2549.36
2525.25
2499.22
2471.16
2441.06
2409.04
2375.01
2339.33
2301.7
2262.9
2222.44
2180.49
2137.08
2092.73
2047
2001.11
1954.22
1907.61
1861.01
1814.55
1768.86
1725.47
1681.46
1639.32
1598.1
1558.24
1520.85
1484.05
1450.17
1417.62
1387.34
1358.19
1330.19
1303.88
1279.41
1257.24
1237.72
1221.48
1186.96
3477.97
2838.34
2828.85
2824.75
2814.75
2807.04
2800.44
2795.09
2790.46
2786.34
2782.75
2779.75
2777.15
2774.63
2772.02
2769.48
2767.24
2765.41
2763.94
2762.48
2760.8
2758.81
2756.46
2753.79
2750.97
2748.24
2745.76
2743.62
2741.89
2740.59
2739.7
2739.22
2739.09
2739.3
2739.77
2740.45
2741.3
2742.31
2743.44
2744.67
2745.98
2747.37
2748.81
2750.31
2751.85
2753.42
2755.02
2756.63
2758.23
2759.82
2761.37
2762.87
2764.32
2765.71
2767
2768.18
2769.22
2770.1
2770.78
2771.25
2771.45
2771.37
2770.91
2770.12
2768.9
2767.22
2765.04
2762.28
2758.9
2754.83
2749.98
2744.31
2737.72
2730.16
2721.57
2711.84
2700.89
2688.68
2675.09
2660.07
2643.56
2625.38
2605.5
2583.87
2560.39
2535.07
2507.96
2478.98
2447.96
2415.11
2380.34
2344.1
2305.75
2265.83
2224.2
2181.29
2137.57
2092.64
2047.19
2000.7
1953.88
1907.19
1860.27
1814.58
1768.46
1722.63
1678.35
1634.48
1593.9
1554.28
1517.01
1481.34
1447.69
1415.45
1384.55
1355.26
1327.92
1302.59
1279.56
1259.16
1220.59
3463.11
2841.83
2825.38
2820.7
2810.21
2801.6
2794.66
2789.63
2785.65
2782.22
2779.21
2776.68
2774.61
2772.74
2770.78
2768.72
2766.81
2765.3
2764.24
2763.37
2762.52
2761.34
2759.7
2757.64
2755.29
2752.89
2750.67
2748.75
2747.23
2746.15
2745.49
2745.26
2745.41
2745.92
2746.66
2747.63
2748.77
2750.07
2751.48
2753
2754.6
2756.28
2758.02
2759.83
2761.7
2763.62
2765.58
2767.57
2769.58
2771.6
2773.6
2775.59
2777.55
2779.47
2781.33
2783.1
2784.78
2786.34
2787.75
2788.97
2789.95
2790.69
2791.15
2791.31
2791.11
2790.52
2789.48
2787.92
2785.83
2783.11
2779.7
2775.56
2770.6
2764.76
2757.98
2750.18
2741.28
2731.23
2719.91
2707.24
2693.17
2677.56
2660.39
2641.57
2620.98
2598.6
2574.33
2547.96
2519.42
2488.96
2456.63
2422.56
2386.27
2348.34
2308.47
2267.25
2224.32
2180.17
2135.01
2088.09
2040.68
1993.38
1945.41
1897.67
1851.06
1804.2
1759.41
1713.51
1670.32
1627.78
1586.68
1546.66
1508.3
1472.17
1438.22
1405.8
1374.9
1345.8
1319.69
1296.4
1249.15
3449.64
2847.87
2823.52
2818.53
2808.51
2799.59
2791.94
2786.2
2781.94
2778.59
2775.76
2773.34
2771.38
2769.79
2768.28
2766.79
2765.49
2764.51
2763.84
2763.4
2763.11
2762.7
2761.89
2760.59
2758.9
2757.02
2755.19
2753.6
2752.36
2751.52
2751.14
2751.16
2751.63
2752.4
2753.45
2754.73
2756.2
2757.81
2759.54
2761.36
2763.27
2765.26
2767.32
2769.44
2771.63
2773.89
2776.2
2778.56
2780.96
2783.39
2785.84
2788.29
2790.73
2793.16
2795.56
2797.91
2800.19
2802.39
2804.47
2806.41
2808.18
2809.75
2811.07
2812.12
2812.88
2813.31
2813.41
2813.03
2812.22
2810.86
2808.87
2806.26
2802.9
2798.78
2793.82
2787.92
2781.04
2773.09
2763.96
2753.61
2741.93
2728.81
2714.19
2697.99
2680.14
2660.63
2639.35
2616.11
2590.95
2564
2535.1
2504.26
2471.26
2436.49
2399.57
2361.03
2320.51
2278.65
2235.17
2190.38
2144.59
2097.62
2049.61
2000.47
1953.35
1905.27
1857.68
1809.14
1762.12
1717.16
1673.45
1631.36
1589.96
1550.71
1514.09
1480
1448.19
1417.58
1389.53
1365.04
1319.3
3434.21
2856.09
2824.37
2818.85
2809.25
2800.11
2792.01
2785.73
2781.01
2777.42
2774.45
2771.86
2769.6
2767.63
2765.91
2764.5
2763.49
2762.94
2762.78
2762.84
2763
2763.14
2763.03
2762.53
2761.62
2760.41
2759.13
2757.98
2757.1
2756.59
2756.5
2756.85
2757.6
2758.69
2760.07
2761.69
2763.5
2765.46
2767.53
2769.7
2771.95
2774.27
2776.66
2779.12
2781.65
2784.25
2786.92
2789.65
2792.44
2795.27
2798.14
2801.04
2803.95
2806.88
2809.8
2812.7
2815.57
2818.39
2821.12
2823.76
2826.27
2828.61
2830.76
2832.7
2834.4
2835.81
2836.9
2837.64
2837.98
2837.92
2837.25
2836.07
2834.22
2831.68
2828.4
2824.29
2819.32
2813.38
2806.4
2798.31
2789.01
2778.41
2766.48
2753.12
2738.23
2721.73
2703.44
2683.22
2661.11
2637.07
2610.92
2582.79
2552.64
2520.59
2486.31
2450.25
2412.17
2372.55
2330.95
2287.87
2243.34
2197.47
2150.67
2102.68
2055.04
2006.76
1958.2
1908.54
1858.39
1810.85
1763.4
1718.19
1672.13
1627.44
1583.88
1543.47
1506.36
1470.67
1437.06
1407.9
1347.85
3413.27
2863.74
2828.57
2821.85
2812.4
2803.36
2794.56
2787.19
2781.77
2777.86
2774.75
2771.99
2769.45
2767.1
2764.99
2763.25
2762.03
2761.54
2761.59
2762
2762.6
2763.17
2763.57
2763.7
2763.5
2763.01
2762.39
2761.79
2761.38
2761.27
2761.54
2762.22
2763.31
2764.75
2766.48
2768.46
2770.62
2772.94
2775.37
2777.9
2780.5
2783.17
2785.9
2788.71
2791.58
2794.53
2797.55
2800.65
2803.81
2807.04
2810.32
2813.64
2817.01
2820.4
2823.82
2827.25
2830.67
2834.07
2837.43
2840.73
2843.94
2847.02
2849.97
2852.74
2855.32
2857.68
2859.79
2861.61
2863.06
2864.14
2864.8
2865.02
2864.66
2863.71
2862.11
2859.73
2856.63
2852.64
2847.72
2841.81
2834.8
2826.61
2817.19
2806.39
2794.12
2780.3
2764.81
2747.61
2728.69
2707.89
2685.08
2660.39
2633.74
2605.1
2574.22
2541.32
2506.14
2469.13
2430.07
2389.41
2346.63
2302.3
2256.65
2209.97
2161.8
2112.97
2062.84
2013.77
1963.22
1913.89
1865
1818.5
1772.43
1727.02
1681.34
1637.42
1596.5
1557.29
1520.35
1486.23
1416.49
3385.41
2869.89
2835.35
2827.8
2818.63
2809.4
2800.25
2791.97
2785.43
2780.65
2777
2773.83
2770.79
2767.88
2765.25
2763.07
2761.55
2760.93
2760.97
2761.45
2762.23
2763.09
2763.84
2764.39
2764.72
2764.86
2764.9
2764.93
2765.07
2765.45
2766.14
2767.21
2768.67
2770.49
2772.6
2774.96
2777.5
2780.19
2783
2785.89
2788.86
2791.9
2794.99
2798.16
2801.39
2804.7
2808.09
2811.55
2815.09
2818.71
2822.4
2826.15
2829.95
2833.81
2837.71
2841.64
2845.6
2849.56
2853.52
2857.44
2861.32
2865.11
2868.81
2872.38
2875.79
2879.04
2882.09
2884.9
2887.44
2889.67
2891.52
2892.95
2893.93
2894.41
2894.43
2893.66
2892.32
2890.19
2887.23
2883.41
2878.61
2872.77
2865.8
2857.58
2848.05
2837.16
2824.77
2810.84
2795.28
2777.85
2758.51
2737.33
2714.19
2689.03
2661.67
2632.14
2600.35
2566.78
2531.18
2493.6
2453.56
2411.85
2368.58
2323.8
2277.17
2228.76
2179.96
2130.67
2081.16
2030.04
1978.56
1927.21
1878.32
1829.6
1781.27
1733.68
1688.36
1646.35
1608.78
1575.66
1514.44
3350.66
2874.17
2844.63
2835.71
2825.73
2816.77
2807.98
2799.41
2791.93
2786.17
2781.9
2778.38
2774.94
2771.31
2767.68
2764.5
2762.23
2761.12
2760.98
2761.38
2762.17
2763.13
2764.06
2764.87
2765.57
2766.18
2766.78
2767.42
2768.16
2769.08
2770.27
2771.79
2773.67
2775.89
2778.41
2781.16
2784.1
2787.18
2790.37
2793.64
2796.98
2800.39
2803.85
2807.38
2810.97
2814.64
2818.39
2822.22
2826.13
2830.13
2834.21
2838.36
2842.59
2846.88
2851.24
2855.65
2860.11
2864.61
2869.12
2873.64
2878.14
2882.6
2887
2891.32
2895.53
2899.62
2903.57
2907.33
2910.88
2914.18
2917.19
2919.87
2922.17
2924.02
2925.41
2926.29
2926.62
2926.3
2925.24
2923.43
2920.69
2917.07
2912.43
2906.69
2899.81
2891.67
2882.17
2871.21
2858.67
2844.37
2828.3
2810.45
2790.66
2768.9
2745.01
2719.01
2690.85
2660.73
2628.3
2593.69
2556.78
2518.15
2477.49
2434.87
2390.01
2343.49
2295.79
2247.66
2198.79
2147.67
2096.02
2041.37
1989.24
1937.94
1887.35
1835.31
1784.39
1734.16
1687.37
1645.74
1566.55
3309.28
2874.04
2852.14
2843.71
2833.95
2825.36
2817.05
2808.91
2801.16
2794.57
2789.45
2785.37
2781.58
2777.46
2772.94
2768.56
2765.06
2762.95
2762.18
2762.25
2762.79
2763.63
2764.56
2765.48
2766.38
2767.29
2768.29
2769.42
2770.71
2772.19
2773.91
2775.92
2778.26
2780.91
2783.85
2787.02
2790.37
2793.85
2797.44
2801.1
2804.82
2808.6
2812.43
2816.32
2820.28
2824.31
2828.43
2832.62
2836.91
2841.28
2845.75
2850.3
2854.94
2859.66
2864.46
2869.34
2874.28
2879.28
2884.33
2889.41
2894.51
2899.6
2904.67
2909.7
2914.66
2919.53
2924.31
2928.96
2933.46
2937.76
2941.83
2945.63
2949.13
2952.28
2955.04
2957.36
2959.17
2960.45
2961.14
2961.27
2960.52
2959.07
2956.71
2953.33
2948.97
2943.45
2936.69
2928.62
2919.1
2908.03
2895.39
2881.06
2864.9
2846.91
2826.98
2805.05
2780.96
2754.68
2726.04
2695.41
2662.64
2627.66
2590.08
2550.51
2509.02
2465.79
2420.49
2373.83
2326.08
2277.29
2226.51
2174.21
2121.51
2070.29
2021.12
1970.01
1920.42
1868.63
1821.1
1778.83
1699.76
3265.3
2866.48
2853.79
2848.09
2840.72
2833.4
2826.06
2818.79
2811.47
2804.7
2798.96
2794.29
2790.16
2785.79
2780.74
2775.36
2770.57
2767.16
2765.32
2764.75
2764.81
2765.27
2765.94
2766.73
2767.6
2768.6
2769.8
2771.27
2772.98
2774.93
2777.15
2779.66
2782.47
2785.57
2788.95
2792.54
2796.31
2800.2
2804.19
2808.24
2812.35
2816.5
2820.7
2824.95
2829.27
2833.66
2838.12
2842.68
2847.32
2852.06
2856.9
2861.84
2866.86
2871.99
2877.21
2882.52
2887.92
2893.39
2898.94
2904.55
2910.2
2915.88
2921.57
2927.25
2932.9
2938.51
2944.07
2949.55
2954.92
2960.16
2965.23
2970.1
2974.73
2979.08
2983.13
2986.82
2990.12
2992.98
2995.3
2997.08
2998.24
2998.75
2998.57
2997.4
2995.43
2992.39
2988.3
2983.05
2976.53
2968.66
2959.36
2948.46
2935.86
2921.55
2905.37
2887.21
2866.86
2844.28
2819.48
2792.74
2763.68
2732.15
2698
2661.97
2624
2583.86
2540.88
2495.81
2449.13
2401.58
2352.56
2301.54
2248.68
2194.87
2140.91
2088.11
2035.54
1980.93
1928.02
1879.27
1789.25
3226.68
2852.87
2849.66
2848.24
2841.87
2836.1
2831.68
2826.81
2820.99
2814.75
2808.9
2803.85
2799.48
2795.09
2789.96
2784.08
2778.29
2773.66
2770.63
2769.07
2768.46
2768.4
2768.59
2769.02
2769.65
2770.5
2771.69
2773.28
2775.25
2777.55
2780.18
2783.13
2786.38
2789.92
2793.72
2797.74
2801.92
2806.22
2810.61
2815.06
2819.54
2824.07
2828.63
2833.24
2837.91
2842.65
2847.46
2852.36
2857.36
2862.45
2867.65
2872.96
2878.36
2883.88
2889.5
2895.23
2901.06
2906.99
2913.01
2919.11
2925.28
2931.51
2937.78
2944.08
2950.38
2956.68
2962.96
2969.2
2975.38
2981.48
2987.47
2993.31
2998.98
3004.44
3009.65
3014.59
3019.21
3023.48
3027.34
3030.74
3033.63
3035.93
3037.6
3038.59
3038.89
3038.24
3036.71
3034.16
3030.42
3025.52
3019.28
3011.57
3002.34
2991.5
2978.93
2964.52
2948.15
2929.76
2909.31
2886.82
2861.97
2834.86
2805.39
2773.84
2739.93
2703.6
2664.6
2623.34
2580.15
2535.79
2489.91
2442.34
2392.25
2339.87
2286.55
2232.63
2180.62
2125.3
2071.08
2019.51
1925.62
3201.27
2838.95
2838.34
2841.33
2839.07
2835.83
2832.64
2830.43
2827.48
2823.21
2818.23
2813.13
2808.48
2804.08
2799.2
2793.42
2787.24
2781.75
2777.7
2775.17
2773.73
2772.99
2772.66
2772.61
2772.82
2773.33
2774.27
2775.78
2777.82
2780.3
2783.2
2786.5
2790.14
2794.08
2798.27
2802.68
2807.25
2811.95
2816.72
2821.55
2826.42
2831.3
2836.22
2841.18
2846.19
2851.26
2856.41
2861.64
2866.97
2872.4
2877.94
2883.6
2889.37
2895.25
2901.25
2907.36
2913.6
2919.95
2926.4
2932.96
2939.61
2946.34
2953.15
2960
2966.9
2973.82
2980.76
2987.7
2994.63
3001.52
3008.35
3015.08
3021.7
3028.17
3034.47
3040.57
3046.42
3052
3057.26
3062.15
3066.63
3070.66
3074.16
3077.06
3079.32
3080.86
3081.63
3081.7
3080.52
3078.48
3075.18
3070.62
3064.77
3057.47
3048.62
3038.16
3025.93
3011.81
2995.64
2977.33
2956.75
2934.09
2909.08
2881.59
2851.42
2818.95
2784.16
2746.98
2707.31
2665.57
2621.82
2576.49
2528.84
2479.32
2427.7
2374.94
2321.81
2268.48
2214.47
2165.01
2078.61
3189.18
2826.15
2824.08
2829.72
2831.21
2831.67
2830.83
2830.07
2829.61
2828.21
2825.53
2821.38
2816.75
2812.3
2807.69
2802.39
2796.4
2790.56
2785.79
2782.46
2780.26
2778.85
2777.93
2777.36
2777.16
2777.23
2777.77
2778.99
2780.94
2783.44
2786.46
2789.99
2793.91
2798.17
2802.71
2807.47
2812.39
2817.44
2822.57
2827.76
2832.98
2838.22
2843.48
2848.76
2854.1
2859.49
2864.96
2870.51
2876.15
2881.91
2887.77
2893.75
2899.86
2906.09
2912.44
2918.92
2925.54
2932.28
2939.14
2946.13
2953.22
2960.42
2967.72
2975.1
2982.54
2990.04
2997.59
3005.17
3012.77
3020.38
3027.98
3035.53
3043.01
3050.4
3057.67
3064.8
3071.76
3078.52
3085.03
3091.27
3097.19
3102.74
3107.88
3112.56
3116.71
3120.28
3123.15
3125.34
3126.72
3127.28
3126.86
3125.27
3122.62
3118.58
3113.18
3106.29
3097.78
3087.49
3075.28
3061.07
3044.77
3026.47
3005.81
2982.72
2957.1
2929.34
2899.23
2866.59
2831.15
2793.05
2752.65
2710.42
2666.14
2620.07
2571.15
2520.33
2467.09
2413.09
2357.8
2302.83
2216.74
3190.28
2825.35
2811.73
2815.01
2818.02
2822.19
2825.5
2827.8
2829.5
2830.03
2829.96
2827.88
2823.99
2819.54
2815.1
2810.35
2804.96
2799.3
2794.22
2790.33
2787.54
2785.57
2784.12
2783.04
2782.38
2782.12
2782.22
2783.01
2784.72
2787.14
2790.14
2793.75
2797.86
2802.36
2807.17
2812.21
2817.43
2822.79
2828.23
2833.74
2839.28
2844.83
2850.41
2856.01
2861.65
2867.35
2873.11
2878.96
2884.9
2890.95
2897.12
2903.41
2909.83
2916.38
2923.06
2929.88
2936.84
2943.94
2951.18
2958.55
2966.05
2973.68
2981.42
2989.26
2997.2
3005.22
3013.32
3021.47
3029.68
3037.94
3046.21
3054.49
3062.75
3070.96
3079.11
3087.17
3095.13
3102.95
3110.6
3118.05
3125.27
3132.2
3138.83
3145.09
3150.94
3156.32
3161.18
3165.47
3169.08
3171.94
3173.99
3175.15
3175.46
3174.45
3172.37
3168.95
3164.05
3157.7
3149.65
3139.85
3128.15
3114.49
3098.62
3080.58
3060.16
3037.42
3012.04
2984.16
2953.54
2920.27
2884.59
2846.63
2806.59
2764.49
2719.93
2673.62
2624.41
2574.72
2521.16
2468.51
2387.29
3195.98
2826.59
2806.16
2804.04
2804.31
2808.7
2815.14
2821.78
2826.91
2830.03
2831.63
2831.84
2829.81
2825.96
2821.63
2817.24
2812.52
2807.4
2802.41
2798.22
2795.02
2792.63
2790.79
2789.31
2788.25
2787.63
2787.47
2787.8
2789.18
2791.42
2794.29
2797.88
2802.07
2806.71
2811.71
2816.97
2822.43
2828.04
2833.75
2839.52
2845.34
2851.18
2857.04
2862.93
2868.85
2874.83
2880.87
2886.99
2893.21
2899.54
2905.99
2912.56
2919.27
2926.11
2933.1
2940.23
2947.51
2954.94
2962.52
2970.25
2978.12
2986.13
2994.28
3002.54
3010.93
3019.42
3028.01
3036.68
3045.44
3054.28
3063.16
3072.09
3081.04
3089.99
3098.92
3107.81
3116.64
3125.4
3134.06
3142.58
3150.94
3159.1
3167.04
3174.7
3182.06
3189.05
3195.64
3201.77
3207.39
3212.42
3216.79
3220.39
3223.19
3225.08
3226.01
3226.07
3224.51
3221.97
3217.79
3212.04
3204.55
3195.17
3183.76
3170.31
3154.51
3136.27
3115.38
3092.13
3066.2
3037.67
3006.36
2972.27
2935.74
2896.6
2855.24
2811.32
2764.81
2716.23
2664.48
2609.53
2534.98
3202.76
2827.01
2804.41
2797.21
2793.12
2794.59
2801.19
2811.15
2820.89
2827.82
2831.82
2833.63
2833.57
2831.25
2827.36
2823.24
2819.09
2814.62
2809.98
2805.72
2802.25
2799.58
2797.49
2795.75
2794.41
2793.49
2793.13
2793.19
2794.21
2796.24
2798.95
2802.42
2806.61
2811.3
2816.43
2821.85
2827.49
2833.29
2839.2
2845.2
2851.25
2857.33
2863.44
2869.57
2875.75
2881.97
2888.27
2894.64
2901.11
2907.69
2914.39
2921.23
2928.2
2935.31
2942.57
2949.98
2957.56
2965.29
2973.18
2981.22
2989.43
2997.78
3006.29
3014.94
3023.72
3032.63
3041.65
3050.78
3060.03
3069.37
3078.79
3088.29
3097.85
3107.44
3117.05
3126.66
3136.27
3145.85
3155.38
3164.84
3174.21
3183.44
3192.52
3201.42
3210.09
3218.51
3226.63
3234.4
3241.77
3248.7
3255.11
3260.96
3266.15
3270.62
3274.22
3276.98
3278.71
3279.44
3278.92
3276.86
3273.45
3268.3
3261.44
3252.71
3241.9
3228.9
3213.53
3195.87
3175.51
3152.59
3126.69
3097.99
3066.52
3032.25
2995.64
2956.02
2914.14
2869.33
2821.88
2769
2699.31
3209.2
2829.06
2804.57
2793.6
2785.33
2783.46
2787
2797.2
2810.83
2822.73
2830.28
2834.19
2835.46
2834.93
2832.25
2828.56
2824.84
2820.97
2816.8
2812.62
2808.98
2806.1
2803.86
2802.02
2800.54
2799.48
2798.95
2798.9
2799.66
2801.5
2804.03
2807.36
2811.48
2816.17
2821.35
2826.87
2832.63
2838.57
2844.64
2850.8
2857.02
2863.3
2869.61
2875.96
2882.35
2888.79
2895.31
2901.91
2908.61
2915.41
2922.34
2929.41
2936.62
2943.97
2951.48
2959.15
2966.98
2974.98
2983.15
2991.48
2999.98
3008.64
3017.47
3026.45
3035.58
3044.86
3054.27
3063.81
3073.48
3083.27
3093.17
3103.16
3113.25
3123.4
3133.6
3143.85
3154.13
3164.42
3174.71
3184.98
3195.21
3205.37
3215.44
3225.4
3235.21
3244.85
3254.29
3263.47
3272.37
3280.94
3289.12
3296.87
3304.12
3310.81
3316.87
3322.22
3326.76
3330.41
3333.1
3334.69
3335.23
3334.23
3331.84
3327.8
3321.85
3314.03
3303.99
3291.66
3276.67
3259.18
3238.71
3215.47
3189.08
3159.8
3127.51
3091.82
3053.28
3011.13
2966.34
2915.94
2849.8
3215.32
2830.52
2804.14
2791.88
2780.97
2776.14
2776.52
2783.45
2797.75
2814.19
2826.72
2833.49
2836.33
2837
2835.95
2833.16
2829.93
2826.54
2822.8
2818.76
2815.04
2812.02
2809.71
2807.88
2806.37
2805.3
2804.7
2804.63
2805.29
2806.99
2809.37
2812.59
2816.61
2821.27
2826.45
2832.02
2837.86
2843.89
2850.06
2856.33
2862.69
2869.12
2875.59
2882.11
2888.68
2895.31
2902.03
2908.82
2915.72
2922.73
2929.87
2937.14
2944.56
2952.13
2959.86
2967.76
2975.82
2984.06
2992.48
3001.07
3009.83
3018.77
3027.88
3037.15
3046.6
3056.19
3065.94
3075.84
3085.87
3096.05
3106.36
3116.78
3127.32
3137.96
3148.67
3159.46
3170.31
3181.21
3192.15
3203.11
3214.07
3225.02
3235.93
3246.79
3257.56
3268.24
3278.79
3289.18
3299.37
3309.34
3319.04
3328.42
3337.44
3346.04
3354.19
3361.8
3368.82
3375.17
3380.76
3385.44
3389.17
3391.77
3393.19
3393.45
3391.73
3388.65
3383.53
3376.27
3366.77
3354.87
3340.19
3322.81
3302.18
3278.71
3251.81
3221.6
3187.89
3149.97
3108.92
3061.57
2999.86
3220.39
2830.26
2803.46
2790.92
2778.99
2772
2770.05
2773.02
2784.46
2802.8
2820.33
2831.33
2836.4
2838.07
2838.29
2836.9
2834.33
2831.38
2828.03
2824.2
2820.42
2817.29
2814.95
2813.19
2811.77
2810.8
2810.24
2810.21
2810.92
2812.56
2814.86
2817.99
2821.92
2826.53
2831.71
2837.29
2843.17
2849.24
2855.48
2861.83
2868.28
2874.81
2881.4
2888.05
2894.77
2901.56
2908.43
2915.4
2922.47
2929.66
2936.98
2944.43
2952.04
2959.8
2967.73
2975.83
2984.1
2992.55
3001.19
3010
3019
3028.17
3037.53
3047.07
3056.78
3066.66
3076.7
3086.9
3097.25
3107.76
3118.42
3129.22
3140.15
3151.19
3162.35
3173.59
3184.93
3196.34
3207.83
3219.37
3230.96
3242.57
3254.19
3265.8
3277.39
3288.93
3300.41
3311.81
3323.08
3334.21
3345.17
3355.92
3366.43
3376.64
3386.52
3396.02
3405.09
3413.67
3421.67
3429.05
3435.68
3441.49
3446.32
3450.18
3452.8
3454.2
3454.4
3452.36
3449.02
3443.33
3435.23
3424.68
3410.98
3394.4
3373.95
3350.12
3321.48
3287.9
3249.78
3204.67
3145.29
3225.78
2829.45
2802.52
2790.36
2778.23
2769.95
2766.31
2766.68
2773.5
2790.26
2811.24
2827.12
2835.37
2838.53
2839.67
2839.49
2837.97
2835.57
2832.54
2828.88
2825.08
2821.89
2819.57
2817.94
2816.69
2815.88
2815.46
2815.54
2816.41
2818.05
2820.34
2823.45
2827.32
2831.9
2837.05
2842.64
2848.52
2854.63
2860.89
2867.29
2873.8
2880.4
2887.07
2893.83
2900.66
2907.57
2914.58
2921.69
2928.91
2936.25
2943.72
2951.34
2959.11
2967.04
2975.15
2983.42
2991.88
3000.51
3009.34
3018.35
3027.55
3036.94
3046.51
3056.27
3066.22
3076.34
3086.64
3097.11
3107.74
3118.54
3129.5
3140.61
3151.87
3163.27
3174.8
3186.43
3198.18
3210.03
3221.98
3234.01
3246.12
3258.28
3270.49
3282.73
3294.99
3307.26
3319.51
3331.73
3343.9
3355.99
3367.99
3379.86
3391.58
3403.11
3414.42
3425.48
3436.25
3446.68
3456.71
3466.3
3475.39
3483.89
3491.74
3498.82
3505.06
3510.19
3514.35
3517.05
3518.5
3518.43
3515.68
3511.45
3504.38
3494.75
3481.89
3466.02
3445.15
3419.46
3386.66
3346.64
3291.43
3230.35
2827.45
2801.1
2789.76
2777.94
2769.16
2764.25
2762.95
2765.93
2778.67
2800.47
2820.92
2832.98
2838.28
2840.47
2841.27
2840.75
2838.97
2836.29
2832.84
2829.09
2825.89
2823.66
2822.17
2821.15
2820.51
2820.29
2820.58
2821.64
2823.35
2825.71
2828.84
2832.7
2837.27
2842.4
2847.98
2853.86
2859.97
2866.24
2872.66
2879.19
2885.84
2892.57
2899.39
2906.31
2913.32
2920.44
2927.67
2935.02
2942.49
2950.1
2957.86
2965.78
2973.86
2982.11
2990.55
2999.17
3007.97
3016.97
3026.16
3035.54
3045.11
3054.88
3064.84
3075
3085.34
3095.86
3106.56
3117.43
3128.48
3139.71
3151.1
3162.65
3174.35
3186.19
3198.16
3210.26
3222.48
3234.82
3247.27
3259.81
3272.44
3285.14
3297.91
3310.73
3323.59
3336.48
3349.38
3362.28
3375.15
3387.99
3400.78
3413.48
3426.07
3438.54
3450.85
3462.98
3474.9
3486.56
3497.93
3508.95
3519.58
3529.74
3539.39
3548.42
3556.77
3564.32
3570.99
3576.56
3581.13
3584.19
3585.87
3586.01
3583.27
3578.78
3571.27
3559.82
3544.19
3520.05
3490.75
3445.92
3234
2824.99
2798.66
2788.51
2777.37
2768.7
2763.31
2760.98
2761.52
2769.57
2789.64
2813.23
2829.34
2837.4
2840.88
2842.43
2842.61
2841.62
2839.36
2836.16
2832.55
2829.39
2827.27
2825.95
2825.16
2824.74
2824.72
2825.31
2826.56
2828.41
2830.9
2834.11
2838.01
2842.59
2847.72
2853.29
2859.16
2865.26
2871.53
2877.95
2884.49
2891.15
2897.92
2904.79
2911.77
2918.86
2926.06
2933.39
2940.84
2948.42
2956.15
2964.02
2972.07
2980.28
2988.67
2997.25
3006.01
3014.97
3024.12
3033.46
3043
3052.75
3062.69
3072.83
3083.16
3093.69
3104.41
3115.32
3126.41
3137.68
3149.14
3160.77
3172.57
3184.53
3196.65
3208.91
3221.31
3233.85
3246.53
3259.33
3272.24
3285.27
3298.39
3311.6
3324.88
3338.24
3351.66
3365.13
3378.63
3392.15
3405.68
3419.21
3432.71
3446.16
3459.55
3472.87
3486.08
3499.17
3512.12
3524.87
3537.43
3549.72
3561.74
3573.41
3584.71
3595.58
3605.94
3615.73
3624.83
3633.15
3640.54
3646.73
3651.9
3655.31
3657.33
3657.57
3654.9
3649.47
3637.49
3622.68
3595.45
3236.61
2822.01
2796.18
2787
2776.56
2768.18
2762.28
2759.45
2759.12
2763.37
2779.94
2804.84
2824.76
2835.82
2840.81
2843.18
2843.95
2843.53
2841.81
2838.91
2835.47
2832.44
2830.45
2829.34
2828.75
2828.56
2828.8
2829.7
2831.13
2833.18
2835.85
2839.17
2843.14
2847.76
2852.91
2858.48
2864.34
2870.42
2876.68
2883.09
2889.63
2896.3
2903.08
2909.99
2917.01
2924.16
2931.44
2938.85
2946.39
2954.06
2961.89
2969.88
2978.03
2986.37
2994.88
3003.58
3012.47
3021.56
3030.85
3040.34
3050.03
3059.92
3070.02
3080.32
3090.82
3101.52
3112.42
3123.52
3134.8
3146.28
3157.94
3169.79
3181.81
3194.01
3206.37
3218.89
3231.56
3244.39
3257.36
3270.47
3283.7
3297.07
3310.55
3324.13
3337.81
3351.59
3365.45
3379.39
3393.39
3407.44
3421.53
3435.66
3449.8
3463.94
3478.07
3492.17
3506.23
3520.23
3534.16
3547.99
3561.7
3575.26
3588.65
3601.83
3614.78
3627.44
3639.77
3651.72
3663.23
3674.26
3684.71
3694.54
3703.57
3711.69
3718.68
3724.58
3729.01
3731.56
3731.51
3727.73
3720.22
3238.37
2819.13
2793.31
2785.05
2775.5
2767.7
2761.52
2758.33
2757.48
2759.42
2772.07
2796.8
2819.91
2833.82
2840.5
2843.66
2844.87
2844.83
2843.62
2841.1
2837.91
2835.09
2833.29
2832.4
2832.02
2832.04
2832.59
2833.75
2835.4
2837.69
2840.55
2844.02
2848.1
2852.78
2857.95
2863.52
2869.37
2875.43
2881.67
2888.05
2894.58
2901.24
2908.03
2914.95
2922.01
2929.2
2936.54
2944.01
2951.62
2959.38
2967.3
2975.38
2983.64
2992.08
3000.7
3009.52
3018.53
3027.74
3037.15
3046.76
3056.59
3066.62
3076.85
3087.3
3097.95
3108.81
3119.87
3131.13
3142.59
3154.25
3166.1
3178.14
3190.36
3202.77
3215.36
3228.1
3241.02
3254.09
3267.32
3280.7
3294.23
3307.89
3321.68
3335.59
3349.62
3363.75
3377.99
3392.32
3406.73
3421.21
3435.76
3450.37
3465.01
3479.69
3494.39
3509.09
3523.79
3538.47
3553.12
3567.72
3582.25
3596.7
3611.04
3625.23
3639.28
3653.14
3666.8
3680.17
3693.25
3705.98
3718.28
3730.15
3741.4
3752.08
3761.9
3770.92
3778.82
3785.43
3790.74
3793.19
3796.28
3239.37
2816.23
2790.13
2782.75
2774.14
2767.06
2760.87
2757.3
2755.98
2756.77
2766.17
2789.83
2815.28
2831.72
2840.02
2843.87
2845.41
2845.64
2844.86
2842.78
2839.94
2837.41
2835.86
2835.17
2834.99
2835.23
2836.1
2837.47
2839.38
2841.91
2844.97
2848.61
2852.81
2857.56
2862.77
2868.35
2874.19
2880.24
2886.45
2892.82
2899.33
2905.98
2912.77
2919.7
2926.78
2934.01
2941.39
2948.92
2956.59
2964.41
2972.4
2980.57
2988.91
2997.45
3006.17
3015.09
3024.21
3033.53
3043.05
3052.78
3062.73
3072.88