/*--------------------------------*- C++ -*----------------------------------*\
| =========                 |                                                 |
| \\      /  F ield         | OpenFOAM: The Open Source CFD Toolbox           |
|  \\    /   O peration     | Version:  2412                                  |
|   \\  /    A nd           | Website:  www.openfoam.com                      |
|    \\/     M anipulation  |                                                 |
\*---------------------------------------------------------------------------*/
FoamFile
{
    version     2.0;
    format      ascii;
    arch        "LSB;label=32;scalar=64";
    class       volScalarField;
    location    "0.051";
    object      T;
}
// * * * * * * * * * * * * * * * * * * * * * * * * * * * * * * * * * * * * * //

dimensions      [0 0 0 1 0 0 0];

internalField   nonuniform List<scalar> 
78650
(
223
223.003
223.037
223.183
223.414
223.567
223.584
223.519
223.251
222.921
222.653
222.436
222.235
222.05
221.925
221.888
221.905
221.974
222.036
222.059
222.058
222.038
222
221.961
221.926
221.891
221.856
221.822
221.789
221.755
221.715
221.666
221.606
221.54
221.47
221.398
221.325
221.252
221.179
221.107
221.037
220.969
220.904
220.842
220.784
220.73
220.68
220.635
220.593
220.555
220.52
220.489
220.46
220.434
220.41
220.389
220.368
220.349
220.329
220.309
220.288
220.265
220.239
220.21
220.176
220.136
220.09
220.036
219.974
219.901
219.817
219.721
219.61
219.482
219.334
219.164
218.969
218.748
218.499
218.217
217.901
217.544
217.145
216.698
216.199
215.639
215.015
214.322
213.56
212.722
211.803
210.787
209.69
208.484
207.191
205.775
204.249
202.62
200.846
198.926
196.936
194.904
192.732
190.628
188.474
186.322
184.105
181.76
179.498
177.283
175.193
173.33
171.602
169.995
168.52
167.119
165.941
165.034
164.589
164.515
163.109
223
223.001
223.024
223.143
223.373
223.558
223.597
223.562
223.337
223.014
222.739
222.52
222.323
222.133
221.984
221.925
221.929
221.983
222.056
222.093
222.1
222.09
222.058
222.019
221.984
221.95
221.917
221.885
221.855
221.823
221.786
221.741
221.685
221.623
221.557
221.488
221.419
221.349
221.279
221.211
221.144
221.08
221.019
220.961
220.908
220.858
220.813
220.772
220.735
220.702
220.672
220.646
220.623
220.603
220.585
220.57
220.556
220.544
220.532
220.521
220.508
220.495
220.479
220.461
220.439
220.413
220.38
220.342
220.295
220.24
220.175
220.099
220.01
219.906
219.785
219.644
219.481
219.294
219.082
218.84
218.567
218.259
217.912
217.521
217.08
216.584
216.029
215.412
214.731
213.975
213.138
212.209
211.201
210.096
208.917
207.62
206.214
204.692
203.005
201.26
199.424
197.489
195.389
193.237
191.032
188.785
186.683
184.427
182.174
179.985
177.737
175.622
173.598
171.691
170.024
168.508
167.266
166.21
165.476
165.078
163.407
223
223.001
223.014
223.106
223.326
223.54
223.607
223.594
223.419
223.11
222.826
222.601
222.408
222.219
222.055
221.97
221.96
221.998
222.075
222.128
222.145
222.141
222.117
222.08
222.045
222.013
221.981
221.951
221.923
221.894
221.86
221.818
221.766
221.708
221.645
221.581
221.515
221.449
221.382
221.316
221.253
221.192
221.135
221.082
221.032
220.987
220.947
220.911
220.879
220.85
220.826
220.805
220.788
220.773
220.762
220.753
220.746
220.742
220.738
220.734
220.731
220.727
220.721
220.714
220.704
220.69
220.671
220.647
220.616
220.578
220.531
220.474
220.407
220.326
220.231
220.117
219.983
219.828
219.65
219.446
219.213
218.948
218.647
218.307
217.922
217.488
217.001
216.455
215.846
215.166
214.413
213.584
212.681
211.684
210.595
209.377
208.073
206.658
205.143
203.512
201.72
199.83
197.836
195.774
193.664
191.381
189.131
186.895
184.54
182.332
180.045
177.789
175.58
173.427
171.481
169.757
168.373
167.303
166.567
166.127
164.117
223
223
223.008
223.075
223.274
223.511
223.611
223.621
223.498
223.21
222.914
222.683
222.493
222.31
222.137
222.026
221.999
222.021
222.093
222.16
222.188
222.191
222.176
222.143
222.109
222.078
222.048
222.02
221.994
221.967
221.937
221.898
221.851
221.796
221.737
221.677
221.615
221.552
221.488
221.426
221.365
221.308
221.254
221.205
221.16
221.119
221.083
221.051
221.024
221.001
220.982
220.966
220.954
220.945
220.94
220.938
220.937
220.94
220.943
220.948
220.953
220.958
220.962
220.965
220.966
220.964
220.958
220.948
220.933
220.91
220.881
220.843
220.795
220.737
220.665
220.578
220.473
220.349
220.203
220.035
219.841
219.619
219.365
219.075
218.747
218.373
217.949
217.47
216.933
216.332
215.665
214.924
214.105
213.192
212.192
211.087
209.906
208.603
207.193
205.67
203.993
202.23
200.319
198.274
196.203
194.041
191.677
189.448
187.082
184.754
182.519
180.238
177.99
175.804
173.636
171.573
169.81
168.405
167.56
167.157
165.259
223
223
223.004
223.049
223.219
223.47
223.609
223.647
223.568
223.308
223.004
222.766
222.581
222.407
222.231
222.096
222.047
222.055
222.112
222.188
222.232
222.242
222.235
222.208
222.175
222.145
222.117
222.091
222.068
222.044
222.017
221.983
221.939
221.888
221.833
221.777
221.718
221.659
221.599
221.539
221.482
221.427
221.377
221.331
221.29
221.254
221.222
221.195
221.173
221.155
221.141
221.13
221.124
221.121
221.121
221.125
221.132
221.14
221.151
221.164
221.177
221.191
221.205
221.218
221.23
221.24
221.247
221.25
221.249
221.242
221.229
221.209
221.181
221.143
221.094
221.032
220.954
220.859
220.744
220.61
220.452
220.269
220.057
219.814
219.535
219.215
218.851
218.438
217.971
217.445
216.858
216.203
215.477
214.664
213.766
212.767
211.686
210.489
209.203
207.794
206.271
204.594
202.807
200.87
198.794
196.747
194.474
192.117
189.765
187.255
184.862
182.462
180.099
177.906
175.761
173.697
171.821
170.096
168.778
167.941
165.355
223
223
223.002
223.029
223.165
223.417
223.601
223.669
223.62
223.402
223.099
222.856
222.672
222.508
222.336
222.183
222.106
222.098
222.135
222.211
222.272
222.292
222.291
222.273
222.243
222.215
222.189
222.166
222.145
222.125
222.102
222.071
222.031
221.984
221.934
221.881
221.826
221.77
221.714
221.657
221.603
221.551
221.504
221.462
221.425
221.392
221.365
221.342
221.325
221.312
221.302
221.297
221.296
221.299
221.305
221.315
221.328
221.343
221.362
221.382
221.403
221.426
221.449
221.472
221.494
221.515
221.534
221.55
221.562
221.57
221.573
221.57
221.561
221.543
221.516
221.477
221.425
221.358
221.273
221.171
221.049
220.904
220.734
220.535
220.306
220.04
219.735
219.384
218.985
218.532
218.022
217.448
216.802
216.074
215.272
214.385
213.418
212.34
211.161
209.844
208.422
206.884
205.203
203.423
201.467
199.405
197.272
194.963
192.702
190.233
187.727
185.237
182.641
180.109
177.669
175.405
173.511
171.949
170.727
169.863
166.95
223
223
223.001
223.016
223.115
223.354
223.581
223.68
223.656
223.494
223.204
222.952
222.766
222.61
222.448
222.286
222.179
222.151
222.169
222.234
222.306
222.341
222.346
222.336
222.312
222.286
222.263
222.243
222.226
222.209
222.189
222.163
222.128
222.085
222.039
221.99
221.939
221.886
221.833
221.78
221.728
221.68
221.636
221.597
221.563
221.534
221.511
221.493
221.48
221.471
221.467
221.467
221.472
221.48
221.492
221.508
221.527
221.549
221.575
221.602
221.632
221.663
221.695
221.727
221.76
221.792
221.822
221.85
221.876
221.899
221.917
221.93
221.938
221.939
221.933
221.917
221.889
221.848
221.792
221.72
221.63
221.52
221.388
221.231
221.046
220.829
220.577
220.285
219.949
219.564
219.127
218.631
218.073
217.446
216.749
215.966
215.094
214.112
213.038
211.848
210.562
209.147
207.609
205.936
204.124
202.115
200.046
197.826
195.532
193.171
190.713
188.29
185.81
183.218
180.636
178.093
175.766
173.804
172.373
171.409
168.355
223
223
223
223.007
223.073
223.284
223.544
223.681
223.682
223.58
223.315
223.053
222.862
222.714
222.564
222.402
222.269
222.214
222.213
222.255
222.332
222.385
222.4
222.397
222.381
222.359
222.339
222.323
222.31
222.296
222.281
222.258
222.228
222.19
222.147
222.102
222.055
222.006
221.956
221.906
221.858
221.813
221.771
221.735
221.705
221.68
221.66
221.646
221.638
221.634
221.635
221.641
221.65
221.663
221.681
221.703
221.728
221.757
221.789
221.824
221.861
221.9
221.941
221.982
222.025
222.067
222.109
222.149
222.187
222.223
222.257
222.286
222.31
222.329
222.341
222.347
222.342
222.327
222.298
222.255
222.197
222.121
222.026
221.909
221.768
221.599
221.399
221.163
220.887
220.568
220.202
219.782
219.304
218.76
218.149
217.459
216.689
215.822
214.867
213.801
212.636
211.344
209.934
208.387
206.703
204.88
202.884
200.745
198.42
196.047
193.515
190.94
188.337
185.709
183.08
180.603
178.17
175.995
174.225
172.942
169.213
223
223
223
223.003
223.042
223.211
223.486
223.673
223.704
223.652
223.425
223.159
222.963
222.818
222.68
222.523
222.374
222.286
222.265
222.285
222.354
222.424
222.454
222.458
222.45
222.434
222.418
222.406
222.397
222.387
222.375
222.357
222.332
222.298
222.26
222.219
222.175
222.13
222.083
222.036
221.991
221.949
221.911
221.878
221.85
221.829
221.813
221.803
221.798
221.799
221.805
221.816
221.83
221.849
221.873
221.9
221.931
221.967
222.006
222.048
222.092
222.139
222.188
222.239
222.291
222.343
222.395
222.447
222.498
222.547
222.594
222.638
222.679
222.715
222.746
222.771
222.787
222.795
222.793
222.777
222.749
222.704
222.642
222.562
222.461
222.335
222.182
221.998
221.779
221.521
221.22
220.872
220.473
220.016
219.498
218.906
218.236
217.477
216.636
215.695
214.656
213.489
212.204
210.788
209.242
207.563
205.727
203.757
201.594
199.344
196.884
194.355
191.678
188.917
186.139
183.471
180.895
178.588
176.682
175.274
171.221
223
223
223
223.001
223.022
223.145
223.412
223.649
223.721
223.703
223.53
223.272
223.069
222.92
222.791
222.644
222.488
222.371
222.328
222.33
222.377
222.456
222.507
222.522
222.521
222.512
222.501
222.493
222.487
222.481
222.473
222.46
222.439
222.41
222.376
222.338
222.298
222.256
222.212
222.169
222.127
222.088
222.053
222.023
221.998
221.98
221.968
221.961
221.961
221.967
221.977
221.992
222.012
222.036
222.065
222.098
222.135
222.177
222.222
222.271
222.323
222.377
222.434
222.493
222.554
222.616
222.679
222.742
222.804
222.866
222.926
222.985
223.04
223.093
223.141
223.185
223.223
223.252
223.272
223.283
223.283
223.269
223.241
223.196
223.133
223.049
222.941
222.807
222.641
222.441
222.204
221.924
221.597
221.218
220.78
220.276
219.706
219.059
218.334
217.51
216.587
215.541
214.385
213.101
211.685
210.132
208.431
206.573
204.557
202.349
200.012
197.493
194.976
192.275
189.39
186.55
183.737
181.199
179.095
177.562
173.606
223
223
223
223
223.01
223.09
223.327
223.605
223.725
223.738
223.629
223.39
223.173
223.017
222.893
222.76
222.607
222.473
222.402
222.387
222.411
222.486
222.556
222.588
222.594
222.592
222.586
222.582
222.581
222.579
222.574
222.565
222.548
222.524
222.494
222.459
222.422
222.383
222.343
222.303
222.265
222.229
222.196
222.17
222.149
222.133
222.124
222.121
222.125
222.135
222.149
222.169
222.194
222.223
222.257
222.296
222.339
222.387
222.438
222.494
222.553
222.615
222.68
222.747
222.817
222.888
222.961
223.034
223.108
223.181
223.255
223.327
223.397
223.465
223.53
223.591
223.648
223.698
223.742
223.776
223.8
223.814
223.817
223.805
223.777
223.731
223.664
223.574
223.459
223.312
223.134
222.917
222.66
222.357
222.002
221.59
221.117
220.57
219.947
219.231
218.424
217.509
216.494
215.357
214.09
212.686
211.132
209.431
207.563
205.499
203.31
200.858
198.258
195.625
192.706
189.775
186.89
184.143
181.688
179.759
174.801
223
223
223
223
223.004
223.049
223.241
223.54
223.715
223.769
223.712
223.503
223.274
223.111
222.992
222.873
222.731
222.589
222.493
222.459
222.464
222.52
222.602
222.655
222.673
222.676
222.676
222.676
222.678
222.68
222.678
222.672
222.66
222.64
222.613
222.582
222.548
222.512
222.475
222.438
222.403
222.37
222.341
222.317
222.299
222.287
222.282
222.282
222.29
222.303
222.322
222.346
222.376
222.41
222.449
222.493
222.542
222.595
222.653
222.715
222.781
222.85
222.922
222.997
223.075
223.156
223.238
223.321
223.405
223.49
223.575
223.66
223.744
223.826
223.907
223.985
224.06
224.13
224.194
224.252
224.301
224.341
224.371
224.39
224.396
224.387
224.36
224.313
224.244
224.148
224.024
223.867
223.674
223.44
223.16
222.829
222.442
221.99
221.471
220.868
220.184
219.403
218.525
217.526
216.403
215.144
213.732
212.174
210.458
208.577
206.492
204.279
201.784
199.167
196.387
193.354
190.476
187.712
185.258
183.325
178.445
223
223
223
223
223.001
223.024
223.162
223.456
223.694
223.792
223.764
223.604
223.377
223.207
223.09
222.982
222.853
222.713
222.6
222.545
222.535
222.566
222.645
222.718
222.754
222.764
222.768
222.772
222.778
222.783
222.784
222.781
222.772
222.756
222.733
222.704
222.673
222.639
222.605
222.572
222.54
222.51
222.485
222.464
222.45
222.441
222.439
222.444
222.454
222.471
222.494
222.522
222.556
222.595
222.639
222.689
222.743
222.802
222.865
222.934
223.006
223.082
223.162
223.244
223.33
223.419
223.51
223.603
223.698
223.793
223.89
223.987
224.084
224.18
224.275
224.369
224.46
224.549
224.633
224.711
224.783
224.848
224.904
224.951
224.986
225.009
225.018
225.011
224.985
224.936
224.862
224.76
224.627
224.459
224.251
223.999
223.697
223.337
222.915
222.419
221.85
221.19
220.439
219.573
218.591
217.478
216.225
214.83
213.264
211.538
209.631
207.525
205.254
202.656
200.072
197.003
193.877
190.875
188.071
185.822
180.328
223
223
223
223
223
223.01
223.098
223.361
223.655
223.798
223.797
223.697
223.482
223.305
223.186
223.087
222.972
222.841
222.721
222.646
222.621
222.631
222.692
222.777
222.831
222.853
222.861
222.868
222.878
222.887
222.891
222.89
222.884
222.871
222.851
222.825
222.796
222.765
222.734
222.704
222.675
222.649
222.627
222.61
222.598
222.593
222.594
222.603
222.617
222.637
222.664
222.697
222.735
222.778
222.827
222.881
222.941
223.005
223.074
223.148
223.227
223.309
223.396
223.486
223.579
223.676
223.776
223.878
223.982
224.087
224.194
224.303
224.412
224.521
224.63
224.738
224.846
224.951
225.053
225.152
225.245
225.332
225.413
225.486
225.551
225.605
225.646
225.674
225.688
225.684
225.657
225.608
225.529
225.421
225.278
225.097
224.872
224.596
224.266
223.873
223.414
222.871
222.243
221.511
220.673
219.714
218.626
217.398
216.005
214.448
212.702
210.767
208.633
206.309
203.695
201.012
197.882
194.949
192.005
189.538
183.642
223
223
223
223
223
223.004
223.054
223.266
223.589
223.79
223.822
223.773
223.584
223.4
223.278
223.187
223.087
222.968
222.85
222.759
222.716
222.711
222.745
222.827
222.901
222.938
222.953
222.963
222.974
222.987
222.995
222.997
222.993
222.983
222.966
222.942
222.915
222.887
222.859
222.832
222.807
222.784
222.766
222.752
222.744
222.742
222.748
222.759
222.777
222.801
222.831
222.868
222.91
222.958
223.011
223.07
223.135
223.204
223.279
223.358
223.443
223.532
223.625
223.722
223.823
223.927
224.035
224.146
224.258
224.374
224.491
224.61
224.73
224.852
224.974
225.096
225.217
225.338
225.457
225.574
225.687
225.795
225.899
225.996
226.086
226.168
226.241
226.302
226.35
226.382
226.399
226.398
226.371
226.32
226.237
226.122
225.97
225.773
225.53
225.231
224.872
224.437
223.927
223.323
222.628
221.819
220.889
219.822
218.597
217.215
215.644
213.894
211.922
209.731
207.325
204.72
201.714
198.669
195.73
193.385
188.066
223
223
223
223
223
223.001
223.026
223.181
223.504
223.766
223.845
223.826
223.674
223.492
223.369
223.285
223.198
223.09
222.976
222.877
222.816
222.797
222.809
222.875
222.962
223.016
223.04
223.054
223.068
223.084
223.096
223.101
223.099
223.091
223.076
223.054
223.03
223.004
222.979
222.956
222.934
222.915
222.9
222.89
222.886
222.888
222.896
222.911
222.933
222.961
222.995
223.036
223.082
223.134
223.192
223.255
223.324
223.398
223.478
223.563
223.653
223.748
223.848
223.951
224.059
224.17
224.285
224.404
224.525
224.649
224.776
224.905
225.036
225.169
225.302
225.437
225.572
225.707
225.842
225.975
226.106
226.234
226.358
226.478
226.592
226.7
226.801
226.893
226.975
227.044
227.098
227.137
227.157
227.159
227.132
227.078
226.991
226.867
226.703
226.49
226.225
225.895
225.499
225.022
224.461
223.793
223.014
222.105
221.052
219.848
218.461
216.903
215.133
213.149
210.907
208.397
205.851
202.67
199.544
196.744
190.704
223
223
223
223
223
223
223.012
223.115
223.41
223.726
223.854
223.858
223.755
223.583
223.459
223.378
223.299
223.202
223.093
222.993
222.92
222.887
222.885
222.926
223.014
223.087
223.124
223.143
223.159
223.177
223.192
223.199
223.199
223.193
223.18
223.16
223.138
223.115
223.094
223.074
223.056
223.041
223.03
223.024
223.022
223.028
223.04
223.059
223.084
223.116
223.154
223.199
223.249
223.305
223.367
223.434
223.508
223.587
223.672
223.762
223.857
223.958
224.063
224.173
224.287
224.405
224.528
224.654
224.783
224.915
225.051
225.189
225.33
225.473
225.618
225.764
225.912
226.06
226.209
226.358
226.505
226.651
226.794
226.934
227.07
227.201
227.327
227.447
227.558
227.659
227.749
227.827
227.888
227.932
227.957
227.961
227.935
227.879
227.786
227.652
227.474
227.24
226.95
226.586
226.148
225.613
224.978
224.226
223.344
222.318
221.124
219.76
218.186
216.403
214.369
212.095
209.576
206.993
204.02
201.462
196.042
223
223
223
223
223
223
223.005
223.068
223.319
223.67
223.848
223.885
223.827
223.67
223.54
223.461
223.391
223.303
223.202
223.105
223.028
222.982
222.969
222.989
223.065
223.153
223.205
223.23
223.248
223.266
223.284
223.294
223.296
223.291
223.279
223.261
223.24
223.22
223.202
223.186
223.173
223.162
223.154
223.151
223.154
223.163
223.179
223.201
223.23
223.266
223.308
223.356
223.41
223.47
223.536
223.608
223.686
223.769
223.859
223.954
224.054
224.16
224.271
224.386
224.506
224.631
224.76
224.893
225.03
225.17
225.313
225.46
225.61
225.763
225.918
226.075
226.234
226.394
226.556
226.718
226.881
227.043
227.203
227.361
227.517
227.67
227.819
227.964
228.102
228.233
228.355
228.467
228.567
228.653
228.722
228.772
228.801
228.807
228.781
228.721
228.622
228.477
228.283
228.025
227.701
227.293
226.799
226.197
225.48
224.628
223.621
222.446
221.066
219.481
217.651
215.574
213.222
210.595
207.78
204.915
199.506
223
223
223
223
223
223
223.002
223.038
223.237
223.601
223.833
223.913
223.882
223.743
223.613
223.535
223.475
223.398
223.305
223.214
223.136
223.082
223.06
223.065
223.12
223.214
223.282
223.316
223.337
223.356
223.374
223.385
223.388
223.384
223.372
223.356
223.337
223.32
223.305
223.292
223.283
223.275
223.272
223.273
223.279
223.292
223.311
223.337
223.37
223.409
223.455
223.507
223.565
223.63
223.7
223.775
223.857
223.945
224.039
224.138
224.243
224.354
224.47
224.591
224.717
224.848
224.983
225.122
225.266
225.413
225.564
225.719
225.877
226.039
226.203
226.37
226.54
226.711
226.885
227.06
227.236
227.412
227.588
227.763
227.937
228.109
228.279
228.445
228.608
228.765
228.915
229.058
229.192
229.314
229.425
229.52
229.597
229.653
229.686
229.694
229.667
229.603
229.495
229.333
229.116
228.827
228.465
228.007
227.447
226.763
225.935
224.95
223.78
222.421
220.828
218.987
216.861
214.52
211.96
209.328
204.459
223
223
223
223
223
223
223.001
223.02
223.171
223.527
223.815
223.932
223.917
223.805
223.679
223.606
223.554
223.488
223.403
223.317
223.242
223.184
223.153
223.149
223.184
223.275
223.358
223.403
223.427
223.446
223.463
223.475
223.477
223.473
223.462
223.446
223.429
223.414
223.402
223.393
223.387
223.384
223.384
223.388
223.398
223.414
223.437
223.467
223.503
223.546
223.596
223.652
223.714
223.782
223.856
223.936
224.022
224.114
224.212
224.315
224.425
224.54
224.661
224.788
224.919
225.055
225.196
225.341
225.491
225.645
225.803
225.965
226.131
226.3
226.473
226.649
226.828
227.01
227.194
227.38
227.568
227.758
227.948
228.138
228.327
228.517
228.705
228.891
229.075
229.256
229.432
229.602
229.766
229.921
230.068
230.202
230.323
230.428
230.512
230.575
230.612
230.622
230.594
230.523
230.404
230.225
229.984
229.657
229.241
228.711
228.055
227.253
226.279
225.118
223.731
222.105
220.195
218.062
215.593
213.075
208.733
223
223
223
223
223
223
223
223.011
223.122
223.456
223.794
223.942
223.941
223.858
223.74
223.672
223.629
223.573
223.494
223.412
223.341
223.284
223.249
223.239
223.26
223.341
223.435
223.491
223.519
223.537
223.552
223.562
223.564
223.56
223.549
223.534
223.518
223.505
223.495
223.489
223.486
223.486
223.489
223.497
223.51
223.53
223.556
223.59
223.63
223.677
223.73
223.79
223.856
223.928
224.006
224.089
224.179
224.275
224.377
224.485
224.599
224.719
224.844
224.975
225.111
225.252
225.399
225.55
225.706
225.866
226.03
226.198
226.371
226.548
226.729
226.913
227.1
227.291
227.485
227.681
227.88
228.081
228.284
228.487
228.691
228.896
229.1
229.304
229.507
229.709
229.907
230.101
230.291
230.476
230.653
230.822
230.981
231.128
231.259
231.374
231.467
231.537
231.578
231.589
231.558
231.478
231.342
231.134
230.852
230.472
229.986
229.369
228.598
227.653
226.494
225.097
223.427
221.483
219.234
216.759
212.907
223
223
223
223
223
223
223
223.006
223.089
223.395
223.766
223.948
223.96
223.903
223.796
223.733
223.697
223.649
223.577
223.499
223.434
223.382
223.346
223.332
223.345
223.413
223.512
223.578
223.609
223.626
223.638
223.646
223.647
223.642
223.631
223.617
223.602
223.59
223.583
223.579
223.579
223.582
223.589
223.6
223.617
223.639
223.669
223.706
223.75
223.801
223.858
223.921
223.991
224.067
224.148
224.236
224.329
224.429
224.535
224.647
224.765
224.889
225.018
225.154
225.295
225.441
225.592
225.748
225.909
226.075
226.245
226.419
226.598
226.782
226.97
227.161
227.356
227.555
227.758
227.963
228.172
228.383
228.597
228.812
229.029
229.246
229.465
229.685
229.905
230.124
230.342
230.557
230.77
230.98
231.185
231.384
231.577
231.76
231.932
232.091
232.235
232.361
232.463
232.539
232.584
232.595
232.558
232.465
232.311
232.074
231.751
231.309
230.731
229.99
229.053
227.898
226.485
224.773
222.786
220.413
216.972
223
223
223
223
223
223
223
223.004
223.067
223.347
223.739
223.951
223.978
223.941
223.846
223.789
223.759
223.719
223.653
223.58
223.522
223.476
223.442
223.427
223.434
223.49
223.588
223.661
223.694
223.71
223.719
223.724
223.724
223.719
223.708
223.695
223.681
223.671
223.665
223.664
223.667
223.673
223.682
223.697
223.716
223.743
223.776
223.817
223.864
223.918
223.979
224.046
224.119
224.198
224.284
224.375
224.472
224.575
224.685
224.801
224.922
225.05
225.184
225.324
225.469
225.619
225.775
225.936
226.102
226.273
226.448
226.628
226.813
227.002
227.196
227.394
227.597
227.803
228.013
228.227
228.444
228.664
228.888
229.113
229.341
229.571
229.802
230.036
230.27
230.505
230.74
230.974
231.207
231.438
231.667
231.892
232.113
232.327
232.535
232.732
232.919
233.092
233.248
233.386
233.497
233.58
233.629
233.64
233.596
233.485
233.299
233.01
232.609
232.064
231.338
230.404
229.199
227.694
225.907
223.692
220.56
223
223
223
223
223
223
223
223.003
223.054
223.314
223.717
223.952
223.996
223.972
223.889
223.838
223.815
223.782
223.724
223.657
223.604
223.565
223.534
223.519
223.523
223.568
223.662
223.738
223.772
223.785
223.79
223.793
223.792
223.786
223.777
223.765
223.754
223.746
223.742
223.743
223.749
223.757
223.77
223.787
223.81
223.84
223.876
223.92
223.971
224.029
224.093
224.164
224.241
224.324
224.412
224.507
224.608
224.715
224.828
224.947
225.073
225.204
225.342
225.486
225.635
225.789
225.949
226.115
226.285
226.461
226.641
226.826
227.016
227.211
227.41
227.614
227.823
228.035
228.252
228.473
228.698
228.926
229.158
229.393
229.631
229.871
230.113
230.358
230.605
230.854
231.103
231.354
231.604
231.854
232.103
232.35
232.595
232.837
233.074
233.304
233.528
233.742
233.944
234.132
234.303
234.454
234.575
234.665
234.716
234.724
234.665
234.53
234.304
233.959
233.468
232.805
231.886
230.676
229.115
227.077
224.176
223
223
223
223
223
223
223
223.002
223.048
223.295
223.706
223.955
224.014
223.997
223.925
223.884
223.867
223.841
223.79
223.728
223.682
223.648
223.621
223.606
223.607
223.645
223.731
223.807
223.839
223.848
223.85
223.85
223.848
223.843
223.836
223.827
223.818
223.812
223.811
223.816
223.824
223.836
223.852
223.872
223.898
223.931
223.971
224.018
224.072
224.133
224.201
224.275
224.356
224.442
224.534
224.633
224.737
224.847
224.964
225.087
225.216
225.351
225.492
225.639
225.792
225.951
226.114
226.284
226.458
226.638
226.823
227.012
227.207
227.407
227.611
227.821
228.035
228.253
228.476
228.703
228.935
229.171
229.41
229.653
229.899
230.148
230.4
230.655
230.913
231.173
231.436
231.7
231.965
232.23
232.497
232.763
233.029
233.294
233.556
233.814
234.069
234.317
234.558
234.789
235.009
235.214
235.4
235.565
235.697
235.796
235.852
235.859
235.786
235.622
235.336
234.904
234.243
233.316
231.98
230.174
227.474
223
223
223
223
223
223
223
223.002
223.047
223.291
223.705
223.963
224.032
224.018
223.958
223.926
223.915
223.897
223.852
223.795
223.754
223.726
223.702
223.688
223.687
223.719
223.797
223.867
223.895
223.899
223.897
223.895
223.893
223.89
223.885
223.878
223.873
223.871
223.873
223.881
223.893
223.908
223.927
223.951
223.98
224.016
224.059
224.11
224.168
224.232
224.303
224.381
224.465
224.555
224.65
224.752
224.86
224.973
225.093
225.219
225.352
225.49
225.635
225.786
225.942
226.104
226.272
226.445
226.623
226.807
226.995
227.189
227.388
227.592
227.802
228.016
228.235
228.459
228.687
228.92
229.157
229.399
229.646
229.896
230.149
230.406
230.667
230.931
231.198
231.469
231.742
232.018
232.295
232.575
232.856
233.139
233.423
233.706
233.99
234.272
234.552
234.829
235.102
235.37
235.631
235.882
236.121
236.346
236.551
236.733
236.878
236.987
237.042
237.036
236.921
236.71
236.333
235.752
234.746
233.327
230.818
223
223
223
223
223
223
223
223.002
223.049
223.299
223.716
223.976
224.049
224.036
223.988
223.966
223.961
223.948
223.909
223.858
223.822
223.798
223.777
223.764
223.762
223.789
223.856
223.917
223.939
223.938
223.933
223.929
223.927
223.926
223.923
223.92
223.918
223.92
223.927
223.94
223.955
223.974
223.996
224.023
224.056
224.095
224.142
224.196
224.258
224.326
224.4
224.481
224.568
224.661
224.76
224.865
224.976
225.093
225.216
225.345
225.481
225.623
225.771
225.925
226.084
226.25
226.421
226.597
226.779
226.967
227.159
227.357
227.56
227.768
227.981
228.2
228.424
228.652
228.885
229.124
229.366
229.614
229.866
230.123
230.383
230.647
230.915
231.187
231.463
231.742
232.025
232.311
232.6
232.891
233.185
233.482
233.78
234.081
234.382
234.684
234.986
235.287
235.587
235.885
236.18
236.469
236.752
237.026
237.288
237.536
237.762
237.965
238.125
238.246
238.306
238.298
238.161
237.874
237.237
236.355
234.339
223
223
223
223
223
223
223
223.003
223.055
223.321
223.74
223.994
224.065
224.054
224.017
224.005
224.005
223.996
223.962
223.916
223.886
223.866
223.848
223.835
223.829
223.85
223.907
223.956
223.972
223.966
223.958
223.954
223.953
223.953
223.953
223.953
223.954
223.961
223.973
223.99
224.01
224.033
224.059
224.09
224.126
224.169
224.22
224.278
224.342
224.414
224.492
224.576
224.666
224.762
224.865
224.973
225.087
225.207
225.333
225.465
225.604
225.749
225.9
226.057
226.22
226.389
226.563
226.743
226.928
227.119
227.315
227.516
227.723
227.935
228.152
228.375
228.603
228.836
229.074
229.317
229.564
229.817
230.075
230.337
230.603
230.873
231.148
231.427
231.71
231.998
232.289
232.584
232.883
233.184
233.489
233.798
234.11
234.424
234.741
235.059
235.38
235.702
236.024
236.347
236.67
236.991
237.31
237.624
237.933
238.234
238.524
238.8
239.055
239.285
239.465
239.596
239.658
239.627
239.371
238.938
237.777
223
223
223
223
223
223
223
223.004
223.068
223.355
223.774
224.013
224.08
224.072
224.045
224.041
224.047
224.041
224.011
223.972
223.946
223.93
223.912
223.898
223.888
223.902
223.947
223.985
223.994
223.986
223.976
223.971
223.97
223.973
223.974
223.977
223.983
223.995
224.012
224.034
224.059
224.086
224.117
224.151
224.191
224.238
224.292
224.354
224.422
224.497
224.578
224.665
224.759
224.858
224.963
225.074
225.192
225.315
225.444
225.579
225.721
225.869
226.023
226.183
226.349
226.521
226.698
226.881
227.07
227.264
227.463
227.668
227.878
228.093
228.315
228.541
228.773
229.01
229.252
229.5
229.752
230.01
230.272
230.54
230.811
231.088
231.369
231.654
231.944
232.239
232.538
232.841
233.148
233.459
233.774
234.093
234.417
234.743
235.073
235.407
235.743
236.082
236.424
236.767
237.113
237.46
237.808
238.155
238.501
238.845
239.185
239.517
239.84
240.148
240.433
240.69
240.905
241.086
241.181
241.06
240.735
223
223
223
223
223
223
223
223.006
223.087
223.402
223.815
224.034
224.095
224.09
224.074
224.076
224.089
224.084
224.057
224.024
224.003
223.988
223.969
223.951
223.936
223.941
223.976
224.003
224.006
223.997
223.986
223.981
223.981
223.984
223.988
223.994
224.005
224.022
224.045
224.072
224.102
224.134
224.168
224.207
224.251
224.302
224.36
224.425
224.497
224.575
224.66
224.75
224.846
224.949
225.057
225.171
225.291
225.417
225.549
225.688
225.832
225.983
226.14
226.303
226.472
226.647
226.827
227.013
227.205
227.402
227.604
227.812
228.025
228.244
228.469
228.699
228.935
229.176
229.422
229.673
229.93
230.192
230.459
230.732
231.009
231.29
231.577
231.868
232.164
232.466
232.772
233.082
233.397
233.717
234.04
234.369
234.702
235.04
235.381
235.727
236.077
236.43
236.788
237.149
237.514
237.882
238.253
238.626
239.002
239.378
239.755
240.131
240.504
240.872
241.229
241.573
241.895
242.198
242.468
242.624
242.772
223
223
223
223
223
223
223
223.01
223.115
223.46
223.861
224.055
224.109
224.109
224.103
224.113
224.129
224.124
224.099
224.072
224.053
224.037
224.013
223.988
223.969
223.967
223.993
224.012
224.011
224.001
223.99
223.985
223.986
223.991
223.997
224.006
224.021
224.044
224.072
224.105
224.139
224.175
224.214
224.257
224.306
224.361
224.423
224.492
224.567
224.648
224.736
224.83
224.929
225.034
225.145
225.262
225.385
225.514
225.649
225.79
225.937
226.091
226.251
226.417
226.589
226.766
226.949
227.138
227.333
227.533
227.738
227.949
228.166
228.388
228.616
228.85
229.089
229.333
229.583
229.839
230.1
230.366
230.637
230.914
231.196
231.483
231.775
232.072
232.374
232.681
232.994
233.311
233.633
233.96
234.292
234.629
234.971
235.318
235.669
236.026
236.387
236.753
237.124
237.499
237.879
238.264
238.653
239.046
239.443
239.843
240.246
240.651
241.056
241.461
241.861
242.253
242.631
243
243.33
243.596
243.861
223
223
223
223
223
223
223.001
223.016
223.153
223.526
223.908
224.075
224.124