/*--------------------------------*- C++ -*----------------------------------*\
| =========                 |                                                 |
| \\      /  F ield         | OpenFOAM: The Open Source CFD Toolbox           |
|  \\    /   O peration     | Version:  2412                                  |
|   \\  /    A nd           | Website:  www.openfoam.com                      |
|    \\/     M anipulation  |                                                 |
\*---------------------------------------------------------------------------*/
FoamFile
{
    version     2.0;
    format      ascii;
    arch        "LSB;label=32;scalar=64";
    class       volScalarField;
    location    "0.051";
    object      T;
}
// * * * * * * * * * * * * * * * * * * * * * * * * * * * * * * * * * * * * * //

dimensions      [0 0 0 1 0 0 0];

internalField   nonuniform List<scalar> 
78650
(
223
223.003
223.037
223.183
223.414
223.567
223.584
223.519
223.251
222.921
222.653
222.436
222.235
222.05
221.925
221.888
221.905
221.974
222.036
222.059
222.058
222.038
222
221.961
221.926
221.891
221.856
221.822
221.789
221.755
221.715
221.665
221.606
221.54
221.47
221.398
221.326
221.253
221.179
221.107
221.037
220.969
220.904
220.842
220.784
220.73
220.681
220.635
220.593
220.555
220.52
220.488
220.46
220.434
220.41
220.389
220.368
220.349
220.329
220.309
220.288
220.265
220.239
220.209
220.175
220.136
220.09
220.037
219.974
219.902
219.818
219.722
219.61
219.481
219.332
219.162
218.967
218.748
218.499
218.218
217.901
217.544
217.143
216.694
216.193
215.633
215.011
214.322
213.561
212.717
211.795
210.79
209.709
208.509
207.206
205.775
204.232
202.598
200.844
198.965
196.947
194.928
192.823
190.502
188.224
185.966
183.859
181.79
179.71
177.653
175.573
173.552
171.59
169.73
168.135
166.768
165.739
164.975
164.564
164.482
163.108
223
223.001
223.024
223.143
223.373
223.558
223.597
223.562
223.337
223.014
222.739
222.52
222.323
222.133
221.984
221.925
221.929
221.983
222.056
222.093
222.1
222.09
222.058
222.019
221.984
221.95
221.917
221.885
221.854
221.823
221.786
221.74
221.685
221.623
221.557
221.488
221.419
221.349
221.28
221.211
221.144
221.079
221.019
220.961
220.908
220.858
220.813
220.772
220.735
220.702
220.672
220.646
220.623
220.602
220.585
220.57
220.556
220.544
220.532
220.521
220.509
220.495
220.479
220.461
220.439
220.412
220.38
220.342
220.296
220.24
220.176
220.1
220.011
219.906
219.784
219.642
219.479
219.293
219.081
218.841
218.568
218.259
217.911
217.517
217.074
216.578
216.027
215.413
214.73
213.971
213.137
212.219
211.219
210.108
208.917
207.615
206.212
204.679
203.015
201.253
199.416
197.448
195.464
193.321
191.12
188.835
186.468
184.255
182.037
179.911
177.839
175.806
173.796
171.824
169.987
168.343
167.042
166.06
165.424
165.089
163.423
223
223.001
223.014
223.106
223.326
223.54
223.607
223.594
223.419
223.11
222.826
222.601
222.408
222.219
222.055
221.97
221.96
221.998
222.075
222.128
222.145
222.141
222.117
222.08
222.045
222.013
221.981
221.951
221.922
221.894
221.86
221.818
221.766
221.707
221.645
221.581
221.515
221.449
221.382
221.316
221.253
221.192
221.135
221.082
221.033
220.988
220.947
220.911
220.879
220.85
220.826
220.805
220.787
220.773
220.762
220.753
220.747
220.742
220.738
220.735
220.731
220.727
220.722
220.714
220.703
220.689
220.671
220.647
220.617
220.578
220.532
220.475
220.408
220.327
220.23
220.115
219.981
219.827
219.649
219.446
219.213
218.948
218.646
218.304
217.918
217.484
216.998
216.452
215.842
215.163
214.416
213.592
212.686
211.678
210.585
209.378
208.088
206.678
205.145
203.5
201.699
199.789
197.796
195.796
193.616
191.503
189.178
186.886
184.581
182.251
180.018
177.84
175.728
173.713
171.748
169.907
168.332
167.094
166.355
165.984
164.045
223
223
223.008
223.075
223.274
223.511
223.611
223.621
223.498
223.21
222.914
222.683
222.493
222.31
222.137
222.026
221.999
222.021
222.093
222.16
222.188
222.191
222.176
222.143
222.109
222.078
222.048
222.02
221.993
221.967
221.937
221.898
221.85
221.796
221.737
221.677
221.615
221.552
221.488
221.426
221.365
221.308
221.254
221.205
221.16
221.119
221.083
221.052
221.024
221.001
220.982
220.966
220.954
220.945
220.94
220.938
220.938
220.94
220.943
220.948
220.953
220.958
220.962
220.965
220.966
220.964
220.958
220.949
220.933
220.911
220.881
220.843
220.796
220.737
220.664
220.576
220.471
220.347
220.202
220.035
219.842
219.62
219.365
219.074
218.743
218.367
217.943
217.465
216.931
216.333
215.668
214.925
214.099
213.183
212.193
211.106
209.932
208.618
207.194
205.649
203.976
202.233
200.296
198.339
196.137
193.949
191.714
189.328
187.065
184.703
182.391
180.122
177.862
175.739
173.703
171.785
170.103
168.63
167.661
167.126
165.161
223
223
223.004
223.049
223.219
223.47
223.609
223.647
223.568
223.308
223.004
222.766
222.581
222.407
222.231
222.096
222.047
222.055
222.112
222.188
222.232
222.242
222.235
222.208
222.176
222.145
222.117
222.091
222.068
222.044
222.017
221.983
221.939
221.888
221.833
221.777
221.719
221.659
221.599
221.539
221.482
221.427
221.377
221.331
221.29
221.254
221.222
221.195
221.173
221.155
221.141
221.13
221.123
221.121
221.121
221.125
221.132
221.141
221.152
221.164
221.178
221.192
221.205
221.218
221.23
221.239
221.246
221.25
221.249
221.242
221.23
221.21
221.182
221.144
221.094
221.031
220.952
220.857
220.743
220.609
220.452
220.27
220.058
219.813
219.532
219.211
218.846
218.434
217.969
217.445
216.858
216.2
215.47
214.663
213.778
212.788
211.7
210.486
209.19
207.78
206.256
204.614
202.824
200.896
198.884
196.662
194.519
192.134
189.782
187.382
184.906
182.517
180.057
177.678
175.429
173.357
171.603
170.121
168.935
168.116
165.507
223
223
223.002
223.029
223.165
223.417
223.601
223.669
223.62
223.402
223.099
222.856
222.672
222.508
222.336
222.183
222.106
222.098
222.135
222.211
222.272
222.292
222.291
222.273
222.244
222.215
222.189
222.166
222.145
222.125
222.101
222.071
222.031
221.984
221.934
221.881
221.827
221.771
221.714
221.657
221.603
221.551
221.504
221.462
221.425
221.392
221.365
221.343
221.325
221.312
221.302
221.297
221.296
221.299
221.305
221.315
221.328
221.343
221.362
221.382
221.403
221.426
221.449
221.472
221.494
221.514
221.533
221.55
221.562
221.571
221.574
221.571
221.562
221.544
221.516
221.476
221.423
221.356
221.272
221.17
221.049
220.904
220.735
220.536
220.305
220.037
219.73
219.379
218.981
218.53
218.021
217.444
216.799
216.08
215.284
214.392
213.413
212.326
211.155
209.851
208.433
206.885
205.219
203.362
201.46
199.369
197.187
194.957
192.573
190.27
187.802
185.378
182.923
180.456
177.965
175.59
173.471
171.727
170.538
169.784
166.943
223
223
223.001
223.016
223.115
223.354
223.581
223.68
223.656
223.494
223.204
222.952
222.766
222.61
222.448
222.286
222.179
222.151
222.169
222.234
222.306
222.341
222.346
222.336
222.312
222.286
222.263
222.243
222.226
222.209
222.189
222.163
222.127
222.085
222.038
221.99
221.939
221.887
221.833
221.78
221.728
221.68
221.636
221.597
221.563
221.534
221.511
221.493
221.48
221.471
221.467
221.467
221.472
221.48
221.492
221.508
221.527
221.55
221.575
221.602
221.632
221.663
221.695
221.727
221.759
221.791
221.821
221.85
221.876
221.899
221.917
221.931
221.938
221.94
221.933
221.916
221.888
221.846
221.79
221.719
221.629
221.52
221.389
221.232
221.046
220.827
220.573
220.28
219.945
219.562
219.125
218.629
218.074
217.449
216.749
215.958
215.082
214.11
213.052
211.872
210.583
209.154
207.604
205.952
204.112
202.171
199.971
197.804
195.409
193.021
190.553
187.979
185.486
183.014
180.558
178.205
176.029
174.009
172.391
171.288
168.196
223
223
223
223.007
223.073
223.284
223.544
223.681
223.682
223.58
223.315
223.053
222.862
222.714
222.564
222.402
222.269
222.214
222.213
222.255
222.332
222.385
222.4
222.397
222.381
222.359
222.339
222.323
222.309
222.296
222.28
222.258
222.228
222.19
222.147
222.102
222.055
222.006
221.957
221.907
221.858
221.813
221.771
221.735
221.705
221.68
221.66
221.647
221.638
221.634
221.635
221.641
221.65
221.663
221.681
221.703
221.728
221.757
221.789
221.824
221.861
221.901
221.941
221.983
222.024
222.066
222.108
222.149
222.188
222.224
222.257
222.286
222.31
222.33
222.342
222.347
222.342
222.325
222.297
222.254
222.196
222.121
222.026
221.91
221.768
221.598
221.396
221.159
220.883
220.565
220.199
219.781
219.304
218.76
218.144
217.452
216.689
215.836
214.889
213.814
212.633
211.333
209.926
208.386
206.712
204.908
202.91
200.775
198.512
196.092
193.648
191.068
188.337
185.628
182.875
180.29
177.941
175.942
174.253
172.968
169.175
223
223
223
223.003
223.042
223.211
223.486
223.673
223.704
223.652
223.425
223.159
222.963
222.818
222.68
222.523
222.374
222.286
222.265
222.285
222.354
222.424
222.454
222.458
222.451
222.434
222.419
222.406
222.396
222.387
222.375
222.357
222.332
222.298
222.26
222.219
222.175
222.13
222.083
222.037
221.991
221.949
221.911
221.877
221.85
221.829
221.813
221.803
221.799
221.799
221.805
221.816
221.83
221.849
221.872
221.9
221.931
221.967
222.006
222.048
222.092
222.139
222.189
222.239
222.29
222.342
222.395
222.447
222.498
222.547
222.594
222.638
222.679
222.716
222.747
222.771
222.787
222.794
222.791
222.776
222.748
222.703
222.642
222.563
222.461
222.335
222.18
221.994
221.775
221.517
221.218
220.871
220.472
220.014
219.495
218.904
218.242
217.487
216.64
215.683
214.636
213.478
212.209
210.803
209.251
207.556
205.729
203.669
201.523
199.228
196.811
194.391
191.789
189.103
186.383
183.55
180.855
178.463
176.63
175.344
171.429
223
223
223
223.001
223.022
223.145
223.412
223.649
223.721
223.703
223.53
223.272
223.069
222.92
222.791
222.644
222.488
222.371
222.328
222.33
222.377
222.456
222.507
222.522
222.521
222.512
222.501
222.493
222.487
222.481
222.473
222.459
222.438
222.41
222.375
222.338
222.298
222.256
222.213
222.169
222.127
222.088
222.053
222.023
221.998
221.98
221.968
221.962
221.961
221.967
221.977
221.992
222.012
222.036
222.064
222.098
222.135
222.177
222.222
222.271
222.323
222.377
222.435
222.494
222.554
222.616
222.678
222.741
222.804
222.866
222.927
222.985
223.041
223.093
223.142
223.186
223.223
223.251
223.271
223.281
223.282
223.268
223.241
223.196
223.134
223.049
222.941
222.804
222.638
222.438
222.201
221.922
221.596
221.216
220.779
220.277
219.709
219.058
218.326
217.499
216.587
215.56
214.415
213.133
211.719
210.162
208.445
206.582
204.529
202.306
199.963
197.393
194.864
192.085
189.352
186.545
183.723
181.155
178.943
177.335
173.176
223
223
223
223
223.01
223.09
223.327
223.605
223.725
223.738
223.629
223.39
223.173
223.017
222.893
222.76
222.607
222.473
222.402
222.387
222.411
222.486
222.556
222.588
222.595
222.592
222.586
222.582
222.581
222.579
222.574
222.565
222.548
222.524
222.493
222.459
222.422
222.384
222.344
222.304
222.265
222.229
222.196
222.169
222.148
222.133
222.124
222.122
222.125
222.135
222.149
222.169
222.194
222.223
222.257
222.296
222.339
222.387
222.438
222.494
222.553
222.615
222.68
222.748
222.817
222.888
222.96
223.034
223.108
223.182
223.255
223.327
223.397
223.465
223.53
223.592
223.648
223.698
223.741
223.774
223.799
223.813
223.816
223.804
223.777
223.731
223.664
223.573
223.456
223.309
223.131
222.915
222.658
222.355
222.002
221.591
221.115
220.564
219.94
219.232
218.436
217.526
216.504
215.354
214.08
212.679
211.13
209.424
207.551
205.499
203.331
200.868
198.291
195.624
192.689
189.903
186.946
184.338
181.969
180.039
175.045
223
223
223
223
223.004
223.049
223.241
223.54
223.715
223.769
223.712
223.503
223.274
223.111
222.992
222.873
222.731
222.589
222.493
222.459
222.464
222.52
222.602
222.655
222.673
222.676
222.676
222.676
222.678
222.68
222.678
222.672
222.66
222.64
222.613
222.582
222.548
222.512
222.475
222.438
222.403
222.37
222.341
222.317
222.299
222.287
222.282
222.283
222.29
222.303
222.322
222.346
222.375
222.41
222.449
222.493
222.542
222.595
222.653
222.715
222.781
222.85
222.922
222.998
223.076
223.155
223.237
223.32
223.405
223.49
223.575
223.66
223.744
223.827
223.908
223.986
224.06
224.13
224.194
224.25
224.3
224.34
224.37
224.389
224.396
224.387
224.36
224.313
224.242
224.146
224.021
223.864
223.672
223.439
223.16
222.828
222.44
221.987
221.471
220.875
220.192
219.402
218.511
217.509
216.393
215.146
213.748
212.2
210.482
208.588
206.488
204.254
201.691
199.17
196.284
193.297
190.265
187.369
184.944
183.129
178.484
223
223
223
223
223.001
223.024
223.162
223.456
223.694
223.792
223.764
223.604
223.377
223.207
223.09
222.982
222.853
222.713
222.6
222.545
222.535
222.566
222.645
222.718
222.754
222.764
222.768
222.772
222.778
222.783
222.784
222.781
222.772
222.756
222.732
222.704
222.672
222.639
222.606
222.572
222.54
222.51
222.485
222.464
222.449
222.441
222.439
222.444
222.454
222.471
222.494
222.522
222.556
222.595
222.639
222.688
222.743
222.802
222.865
222.934
223.006
223.082
223.162
223.245
223.331
223.419
223.51
223.603
223.697
223.793
223.89
223.987
224.084
224.18
224.276
224.369
224.461
224.549
224.632
224.71
224.782
224.847
224.903
224.95
224.986
225.009
225.018
225.012
224.984
224.935
224.86
224.758
224.625
224.457
224.25
223.998
223.696
223.337
222.917
222.421
221.847
221.18
220.429
219.573
218.606
217.508
216.262
214.866
213.296
211.567
209.648
207.544
205.278
202.72
200.082
197.02
194.077
190.987
187.997
185.566
179.816
223
223
223
223
223
223.01
223.098
223.361
223.655
223.798
223.797
223.697
223.482
223.305
223.186
223.087
222.972
222.841
222.721
222.646
222.621
222.631
222.692
222.777
222.831
222.853
222.861
222.868
222.878
222.887
222.891
222.89
222.884
222.871
222.851
222.825
222.795
222.765
222.734
222.704
222.675
222.649
222.627
222.61
222.598
222.593
222.594
222.603
222.617
222.637
222.664
222.697
222.735
222.778
222.827
222.881
222.94
223.005
223.074
223.148
223.227
223.309
223.396
223.486
223.58
223.677
223.776
223.877
223.981
224.087
224.195
224.303
224.412
224.521
224.63
224.739
224.846
224.951
225.053
225.151
225.244
225.331
225.412
225.485
225.55
225.605
225.647
225.675
225.688
225.684
225.656
225.605
225.527
225.419
225.277
225.095
224.871
224.596
224.267
223.871
223.408
222.866
222.246
221.521
220.686
219.721
218.623
217.387
215.986
214.424
212.679
210.744
208.598
206.217
203.715
200.893
197.867
195.068
192.303
189.96
184.245
223
223
223
223
223
223.004
223.054
223.266
223.589
223.79
223.822
223.773
223.584
223.4
223.278
223.187
223.087
222.968
222.85
222.759
222.716
222.711
222.745
222.827
222.901
222.938
222.953
222.963
222.974
222.987
222.995
222.997
222.993
222.983
222.965
222.942
222.915
222.887
222.859
222.832
222.807
222.784
222.766
222.752
222.744
222.742
222.748
222.759
222.777
222.801
222.832
222.868
222.91
222.958
223.011
223.07
223.134
223.204
223.279
223.359
223.443
223.532
223.625
223.722
223.823
223.928
224.035
224.145
224.258
224.373
224.491
224.61
224.731
224.852
224.974
225.096
225.218
225.339
225.458
225.573
225.686
225.794
225.897
225.995
226.085
226.168
226.241
226.302
226.35
226.382
226.398
226.397
226.369
226.318
226.235
226.121
225.969
225.773
225.53
225.229
224.87
224.44
223.933
223.328
222.624
221.806
220.87
219.805
218.59
217.221
215.658
213.906
211.94
209.754
207.289
204.695
201.582
198.478
195.461
193.062
187.669
223
223
223
223
223
223.001
223.026
223.181
223.504
223.766
223.845
223.826
223.674
223.492
223.369
223.285
223.198
223.09
222.975
222.877
222.816
222.797
222.809
222.875
222.962
223.016
223.04
223.054
223.068
223.084
223.096
223.1
223.099
223.091
223.076
223.054
223.029
223.004
222.979
222.956
222.934
222.916
222.901
222.89
222.886
222.887
222.896
222.911
222.933
222.961
222.995
223.036
223.082
223.134
223.192
223.255
223.324
223.398
223.478
223.563
223.653
223.748
223.848
223.951
224.059
224.171
224.286
224.404
224.525
224.649
224.776
224.905
225.036
225.169
225.302
225.437
225.572
225.708
225.842
225.975
226.105
226.233
226.357
226.477
226.591
226.7
226.801
226.893
226.975
227.044
227.098
227.136
227.155
227.157
227.13
227.077
226.99
226.867
226.702
226.489
226.226
225.897
225.5
225.017
224.451
223.785
223.014
222.116
221.075
219.882
218.506
216.949
215.171
213.188
210.974
208.502
205.911
202.849
199.711
196.892
190.812
223
223
223
223
223
223
223.012
223.115
223.41
223.726
223.854
223.858
223.755
223.583
223.459
223.378
223.299
223.202
223.093
222.993
222.92
222.887
222.885
222.926
223.014
223.087
223.124
223.143
223.159
223.177
223.192
223.199
223.199
223.193
223.18
223.16
223.138
223.115
223.094
223.074
223.057
223.042
223.03
223.024
223.022
223.028
223.04
223.059
223.084
223.116
223.154
223.199
223.249
223.305
223.367
223.434
223.508
223.587
223.672
223.762
223.857
223.958
224.063
224.173
224.287
224.406
224.528
224.653
224.782
224.915
225.051
225.189
225.33
225.473
225.618
225.764
225.912
226.061
226.21
226.358
226.505
226.65
226.793
226.933
227.069
227.201
227.327
227.446
227.558
227.659
227.749
227.827
227.887
227.931
227.955
227.959
227.933
227.878
227.785
227.652
227.474
227.24
226.948
226.583
226.147
225.618
224.989
224.237
223.351
222.318
221.112
219.733
218.145
216.353
214.313
212.041
209.514
206.854
203.938
201.432
196.085
223
223
223
223
223
223
223.005
223.068
223.319
223.67
223.848
223.885
223.827
223.67
223.54
223.461
223.391
223.303
223.202
223.105
223.028
222.982
222.969
222.989
223.065
223.153
223.205
223.23
223.248
223.266
223.284
223.294
223.295
223.291
223.278
223.261
223.24
223.22
223.202
223.186
223.173
223.162
223.154
223.151
223.154
223.163
223.179
223.201
223.23
223.266
223.308
223.356
223.41
223.47
223.536
223.608
223.686
223.769
223.859
223.954
224.054
224.16
224.271
224.386
224.507
224.631
224.76
224.893
225.029
225.169
225.313
225.46
225.61
225.763
225.918
226.075
226.234
226.395
226.556
226.719
226.881
227.042
227.202
227.36
227.516
227.669
227.819
227.963
228.102
228.233
228.355
228.467
228.566
228.652
228.72
228.77
228.799
228.806
228.78
228.721
228.622
228.476
228.282
228.025
227.705
227.297
226.8
226.193
225.468
224.609
223.597
222.425
221.055
219.482
217.653
215.572
213.216
210.591
207.756
204.863
199.46
223
223
223
223
223
223
223.002
223.038
223.237
223.601
223.833
223.913
223.882
223.743
223.613
223.535
223.475
223.398
223.305
223.214
223.136
223.082
223.059
223.065
223.12
223.214
223.282
223.316
223.337
223.356
223.374
223.385
223.388
223.384
223.372
223.356
223.337
223.32
223.305
223.293
223.283
223.276
223.272
223.273
223.279
223.292
223.311
223.337
223.37
223.409
223.455
223.507
223.566
223.63
223.7
223.775
223.857
223.945
224.039
224.138
224.243
224.354
224.47
224.591
224.717
224.848
224.983
225.122
225.266
225.413
225.564
225.719
225.878
226.039
226.203
226.37
226.54
226.712
226.885
227.06
227.236
227.412
227.587
227.762
227.936
228.108
228.278
228.445
228.607
228.765
228.916
229.058
229.192
229.314
229.423
229.519
229.595
229.651
229.685
229.693
229.667
229.602
229.495
229.334
229.118
228.826
228.461
228.001
227.442
226.762
225.944
224.971
223.812
222.456
220.863
219.029
216.914
214.565
212.002
209.355
204.452
223
223
223
223
223
223
223.001
223.02
223.171
223.527
223.815
223.932
223.917
223.805
223.679
223.606
223.554
223.488
223.403
223.317
223.242
223.184
223.153
223.149
223.184
223.276
223.358
223.403
223.427
223.446
223.463
223.475
223.477
223.473
223.462
223.446
223.429
223.414
223.402
223.393
223.387
223.384
223.384
223.388
223.398
223.414
223.437
223.467
223.503
223.546
223.596
223.652
223.714
223.782
223.856
223.936
224.022
224.113
224.211
224.315
224.425
224.541
224.661
224.788
224.919
225.055
225.196
225.341
225.491
225.645
225.803
225.965
226.131
226.301
226.473
226.649
226.828
227.01
227.194
227.381
227.568
227.757
227.947
228.137
228.327
228.516
228.704
228.891
229.075
229.255
229.432
229.602
229.766
229.921
230.067
230.201
230.321
230.426
230.511
230.574
230.611
230.622
230.594
230.523
230.404
230.223
229.982
229.657
229.245
228.72
228.068
227.266
226.286
225.114
223.716
222.085
220.178
218.053
215.598
213.105
208.792
223
223
223
223
223
223
223
223.011
223.122
223.456
223.794
223.942
223.941
223.858
223.74
223.672
223.629
223.573
223.494
223.412
223.341
223.284
223.249
223.239
223.26
223.341
223.435
223.491
223.519
223.537
223.552
223.562
223.564
223.56
223.548
223.533
223.518
223.504
223.495
223.489
223.486
223.486
223.489
223.497
223.51
223.53
223.556
223.59
223.63
223.677
223.73
223.79
223.856
223.928
224.006
224.089
224.179
224.275
224.377
224.485
224.599
224.719
224.844
224.975
225.111
225.253
225.399
225.55
225.705
225.865
226.03
226.198
226.371
226.548
226.729
226.913
227.1
227.291
227.485
227.682
227.881
228.081
228.283
228.486
228.691
228.895
229.1
229.304
229.507
229.708
229.907
230.102
230.292
230.476
230.653
230.822
230.98
231.126
231.258
231.373
231.467
231.536
231.577
231.589
231.558
231.477
231.344
231.138
230.857
230.475
229.985
229.359
228.579
227.628
226.469
225.073
223.401
221.446
219.177
216.676
212.816
223
223
223
223
223
223
223
223.006
223.089
223.395
223.766
223.948
223.96
223.903
223.796
223.733
223.697
223.649
223.577
223.499
223.434
223.382
223.346
223.332
223.345
223.413
223.512
223.578
223.609
223.626
223.638
223.646
223.647
223.642
223.631
223.617
223.602
223.59
223.583
223.579
223.579
223.582
223.589
223.6
223.617
223.639
223.669
223.706
223.75
223.801
223.858
223.921
223.991
224.067
224.148
224.236
224.329
224.429
224.535
224.647
224.765
224.889
225.018
225.154
225.295
225.441
225.592
225.748
225.909
226.074
226.245
226.419
226.599
226.782
226.97
227.161
227.356
227.555
227.758
227.963
228.172
228.383
228.596
228.811
229.028
229.246
229.465
229.684
229.904
230.123
230.341
230.557
230.771
230.98
231.185
231.384
231.576
231.758
231.93
232.09
232.234
232.36
232.462
232.538
232.584
232.596
232.559
232.465
232.309
232.069
231.742
231.301
230.727
229.994
229.062
227.91
226.503
224.8
222.824
220.447
217.01
223
223
223
223
223
223
223
223.004
223.067
223.347
223.739
223.951
223.978
223.941
223.846
223.789
223.759
223.719
223.653
223.58
223.522
223.476
223.442
223.427
223.434
223.49
223.588
223.661
223.695
223.71
223.719
223.724
223.724
223.719
223.708
223.694
223.681
223.671
223.665
223.664
223.667
223.673
223.683
223.697
223.717
223.743
223.776
223.816
223.864
223.918
223.979
224.046
224.119
224.198
224.284
224.375
224.472
224.575
224.685
224.801
224.922
225.05
225.184
225.324
225.469
225.62
225.775
225.936
226.102
226.272
226.448
226.628
226.813
227.003
227.196
227.394
227.597
227.803
228.013
228.227
228.444
228.664
228.887
229.113
229.34
229.57
229.802
230.035
230.269
230.504
230.739
230.974
231.207
231.439
231.667
231.892
232.112
232.326
232.533
232.731
232.918
233.091
233.248
233.386
233.497
233.58
233.628
233.639
233.594
233.485
233.302
233.02
232.625
232.084
231.361
230.43
229.225
227.717
225.921
223.7
220.558
223
223
223
223
223
223
223
223.003
223.054
223.314
223.717
223.952
223.996
223.972
223.889
223.838
223.815
223.782
223.724
223.657
223.604
223.565
223.534
223.519
223.523
223.568
223.662
223.738
223.772
223.785
223.79
223.793
223.792
223.786
223.777
223.765
223.754
223.745
223.742
223.743
223.749
223.757
223.77
223.788
223.81
223.84
223.876
223.92
223.971
224.029
224.093
224.164
224.241
224.324
224.412
224.507
224.608
224.715
224.828
224.947
225.073
225.205
225.342
225.486
225.635
225.79
225.95
226.115
226.285
226.46
226.64
226.826
227.016
227.211
227.41
227.614
227.823
228.035
228.252
228.473
228.698
228.927
229.158
229.393
229.63
229.87
230.113
230.358
230.605
230.853
231.103
231.353
231.604
231.854
232.103
232.35
232.595
232.836
233.073
233.303
233.527
233.741
233.943
234.132
234.302
234.453
234.574
234.665
234.717
234.726
234.669
234.533
234.303
233.95
233.449
232.771
231.841
230.627
229.069
227.042
224.152
223
223
223
223
223
223
223
223.002
223.048
223.295
223.706
223.955
224.014
223.997
223.925
223.884
223.867
223.841
223.79
223.728
223.682
223.648
223.621
223.606
223.607
223.645
223.731
223.807
223.839
223.849
223.85
223.85
223.848
223.843
223.836
223.827
223.818
223.812
223.811
223.816
223.824
223.836
223.852
223.872
223.898
223.931
223.971
224.018
224.072
224.133
224.201
224.275
224.356
224.442
224.535
224.633
224.737
224.847
224.964
225.087
225.216
225.351
225.492
225.639
225.792
225.951
226.115
226.284
226.458
226.638
226.822
227.012
227.207
227.407
227.612
227.821
228.035
228.253
228.476
228.704
228.935
229.171
229.41
229.652
229.898
230.147
230.4
230.655
230.913
231.173
231.435
231.699
231.965
232.231
232.497
232.764
233.029
233.293
233.555
233.813
234.068
234.316
234.557
234.789
235.008
235.214
235.4
235.566
235.698
235.796
235.85
235.854
235.778
235.615
235.335
234.913
234.27
233.356
232.022
230.208
227.502
223
223
223
223
223
223
223
223.002
223.047
223.291
223.705
223.963
224.032
224.018
223.958
223.926
223.915
223.897
223.852
223.795
223.754
223.726
223.702
223.688
223.687
223.719
223.797
223.867
223.895
223.899
223.897
223.895
223.893
223.889
223.884
223.878
223.873
223.87
223.873
223.881
223.893
223.908
223.927
223.951
223.98
224.016
224.059
224.11
224.168
224.232
224.304
224.381
224.465
224.555
224.65
224.752
224.86
224.973
225.093
225.219
225.352
225.49
225.635
225.786
225.942
226.104
226.272
226.445
226.623
226.806
226.995
227.189
227.388
227.593
227.802
228.016
228.235
228.459
228.687
228.92
229.158
229.4
229.646
229.895
230.148
230.406
230.666
230.93
231.198
231.468
231.741
232.017
232.295
232.575
232.857
233.139
233.423
233.706
233.989
234.271
234.551
234.828
235.101
235.369
235.63
235.881
236.121
236.346
236.55
236.732
236.877
236.987
237.045
237.046
236.938
236.723
236.337
235.745
234.73
233.311
230.801
223
223
223
223
223
223
223
223.002
223.049
223.299
223.716
223.976
224.049
224.036
223.988
223.966
223.961
223.948
223.909
223.858
223.822
223.798
223.777
223.764
223.762
223.789
223.856
223.917
223.939
223.938
223.933
223.929
223.927
223.926
223.923
223.92
223.918
223.92
223.927
223.94
223.955
223.974
223.997
224.023
224.056
224.095
224.142
224.196
224.258
224.326
224.4
224.481
224.568
224.661
224.76
224.865
224.976
225.093
225.216
225.345
225.481
225.623
225.771
225.925
226.084
226.25
226.421
226.597
226.779
226.966
227.159
227.356
227.56
227.768
227.982
228.2
228.423
228.652
228.885
229.124
229.367
229.614
229.866
230.122
230.382
230.646
230.914
231.186
231.462
231.741
232.024
232.31
232.599
232.891
233.186
233.482
233.78
234.08
234.381
234.683
234.985
235.286
235.586
235.884
236.179
236.468
236.752
237.025
237.288
237.536
237.763
237.966
238.127
238.245
238.3
238.284
238.146
237.865
237.233
236.355
234.34
223
223
223
223
223
223
223
223.003
223.055
223.321
223.74
223.994
224.065
224.054
224.017
224.005
224.005
223.996
223.962
223.916
223.886
223.866
223.848
223.835
223.829
223.85
223.907
223.956
223.972
223.966
223.958
223.953
223.953
223.953
223.953
223.953
223.954
223.961
223.973
223.99
224.011
224.033
224.06
224.09
224.126
224.169
224.22
224.278
224.342
224.414
224.492
224.576
224.666
224.762
224.865
224.973
225.087
225.207
225.333
225.465
225.604
225.749
225.9
226.057
226.22
226.389
226.563
226.743
226.928
227.119
227.314
227.516
227.723
227.935
228.152
228.375
228.603
228.836
229.074
229.317
229.564
229.817
230.075
230.336
230.602
230.873
231.148
231.427
231.71
231.997
232.288
232.583
232.882
233.184
233.49
233.798
234.11
234.424
234.74
235.059
235.379
235.701
236.024
236.347
236.669
236.99
237.309
237.624
237.933
238.234
238.524
238.8
239.054
239.283
239.465
239.6
239.666
239.639
239.381
238.943
237.779
223
223
223
223
223
223
223
223.004
223.068
223.355
223.774
224.013
224.08
224.072
224.045
224.041
224.047
224.041
224.011
223.972
223.946
223.93
223.912
223.898
223.888
223.902
223.947
223.985
223.994
223.986
223.976
223.971
223.97
223.973
223.974
223.977
223.983
223.994
224.012
224.034
224.059
224.086
224.117
224.151
224.191
224.238
224.292
224.354
224.422
224.497
224.578
224.665
224.759
224.858
224.963
225.074
225.191
225.315
225.444
225.579
225.721
225.869
226.023
226.183
226.349
226.521
226.698
226.881
227.07
227.263
227.463
227.667
227.878
228.094
228.315
228.541
228.773
229.01
229.252
229.5
229.752
230.01
230.272
230.539
230.811
231.087
231.368
231.654
231.944
232.238
232.537
232.84
233.148
233.459
233.775
234.094
234.417
234.743
235.073
235.406
235.742
236.081
236.423
236.767
237.112
237.459
237.807
238.155
238.501
238.845
239.184
239.517
239.84
240.149
240.435
240.69
240.903
241.083
241.178
241.057
240.734
223
223
223
223
223
223
223
223.006
223.087
223.402
223.815
224.034
224.095
224.09
224.074
224.076
224.089
224.084
224.057
224.024
224.003
223.988
223.969
223.951
223.936
223.941
223.976
224.003
224.006
223.997
223.986
223.981
223.98
223.984
223.988
223.994
224.005
224.022
224.045
224.072
224.102
224.134
224.168
224.207
224.251
224.302
224.36
224.425
224.497
224.575
224.66
224.75
224.846
224.949
225.057
225.171
225.291
225.417
225.549
225.687
225.832
225.983
226.14
226.303
226.472
226.647
226.827
227.013
227.205
227.401
227.604
227.812
228.025
228.245
228.469
228.699
228.935
229.176
229.422
229.673
229.93
230.192
230.459
230.731
231.008
231.29
231.576
231.868
232.164
232.465
232.771
233.081
233.397
233.716
234.041
234.369
234.702
235.04
235.381
235.727
236.076
236.43
236.787
237.149
237.513
237.881
238.252
238.626
239.001
239.378
239.755
240.131
240.504
240.872
241.228
241.571
241.894
242.199
242.469
242.625
242.773
223
223
223
223
223
223
223
223.01
223.115
223.46
223.861
224.055
224.109
224.109
224.103
224.113
224.129
224.124
224.099
224.072
224.053
224.036
224.013
223.988
223.969
223.967
223.993
224.012
224.011
224.001
223.99
223.985
223.985
223.991
223.997
224.006
224.021
224.043
224.072
224.105
224.139
224.176
224.215
224.258
224.306
224.361
224.423
224.492
224.567
224.648
224.736
224.83
224.929
225.034
225.145
225.262
225.385
225.514
225.649
225.79
225.938
226.091
226.251
226.417
226.589
226.766
226.95
227.138
227.333
227.532
227.738
227.949
228.166
228.388
228.616
228.85
229.089
229.333
229.583
229.839
230.1
230.366
230.637
230.914
231.196
231.482
231.774
232.071
232.373
232.681
232.993
233.31
233.632
233.96
234.292
234.629
234.971
235.318
235.669
236.025
236.387
236.752
237.123
237.499
237.879
238.263
238.652
239.045
239.442
239.843
240.245
240.65
241.056
241.461
241.861
242.253
242.631
243
243.33
243.596
243.861
223
223
223
223
223
223
223.001
223.016
223.153
223.526
223.908
224.075
224.124