/*--------------------------------*- C++ -*----------------------------------*\
| =========                 |                                                 |
| \\      /  F ield         | OpenFOAM: The Open Source CFD Toolbox           |
|  \\    /   O peration     | Version:  2412                                  |
|   \\  /    A nd           | Website:  www.openfoam.com                      |
|    \\/     M anipulation  |                                                 |
\*---------------------------------------------------------------------------*/
FoamFile
{
    version     2.0;
    format      ascii;
    arch        "LSB;label=32;scalar=64";
    class       volScalarField;
    location    "0.083";
    object      rho;
}
// * * * * * * * * * * * * * * * * * * * * * * * * * * * * * * * * * * * * * //

dimensions      [1 -3 0 0 0 0 0];

internalField   nonuniform List<scalar> 
9763
(
0.0421325
0.0428661
0.0421389
0.0428303
0.0421476
0.0428006
0.0421559
0.0427899
0.0421644
0.0427806
0.042172
0.042776
0.0421788
0.04277
0.0421844
0.0427625
0.0421887
0.0427521
0.0421914
0.0427396
0.0421927
0.0427248
0.0421932
0.0427085
0.042193
0.0426901
0.0421918
0.0426704
0.0421902
0.0426491
0.0421876
0.0426267
0.042185
0.0426032
0.0421817
0.0425787
0.0421788
0.0425538
0.0421754
0.0425284
0.0421726
0.0425028
0.0421696
0.042477
0.0421671
0.0424511
0.0421646
0.0424251
0.0421627
0.0423988
0.0421608
0.0423721
0.0421592
0.0423445
0.0421575
0.0423161
0.0421557
0.0422864
0.0421533
0.0422553
0.04215
0.042223
0.0421459
0.0421892
0.0421407
0.0421545
0.0421351
0.0421189
0.0421281
0.042083
0.04212
0.0420475
0.0421105
0.0420122
0.0421002
0.0419775
0.042089
0.0419429
0.0420774
0.0419086
0.0418739
0.041839
0.0418036
0.0590769
0.0440599
0.0437276
0.0436046
0.0434609
0.0433274
0.0432034
0.043112
0.043024
0.0429414
0.0428589
0.042774
0.0426862
0.0425962
0.042506
0.042417
0.0423299
0.0422454
0.0421632
0.042083
0.042004
0.0419256
0.0418472
0.0417687
0.0416903
0.0416123
0.0415355
0.0414604
0.0413875
0.0413168
0.0412485
0.0411828
0.04112
0.0410607
0.0410052
0.0409536
0.0409062
0.0408632
0.040825
0.0407916
0.0407632
0.0407393
0.04072
0.0407055
0.0406958
0.0406903
0.0406886
0.0406914
0.0406986
0.0407094
0.0407234
0.0407407
0.0407611
0.0407846
0.040811
0.0408394
0.0408701
0.0409015
0.0409329
0.0409667
0.0409948
0.0410289
0.0410517
0.0410772
0.041104
0.0411311
0.0411595
0.0411896
0.0412212
0.0412546
0.0412892
0.0413255
0.0413626
0.0414008
0.0414391
0.0414778
0.0415158
0.0415537
0.0415911
0.0416283
0.0416654
0.0417026
0.0417398
0.0417778
0.0418165
0.0418561
0.041896
0.0419366
0.0419764
0.0420145
0.0420504
0.0420849
0.0421181
0.0421504
0.0421813
0.0422111
0.0422395
0.0422669
0.0422929
0.0423183
0.0423423
0.0423652
0.0423864
0.0424055
0.0424229
0.0424359
0.0424463
0.0424517
0.0424535
0.0424512
0.0424436
0.0424316
0.0424144
0.0423936
0.04237
0.0423446
0.0423185
0.04229
0.0422616
0.0422544
0.0421711
0.0591217
0.0440537
0.043721
0.0435998
0.043457
0.0433247
0.0432012
0.0431101
0.0430223
0.04294
0.0428577
0.042773
0.0426854
0.0425956
0.0425054
0.0424164
0.0423293
0.0422447
0.0421624
0.042082
0.0420028
0.0419242
0.0418456
0.0417668
0.041688
0.0416097
0.0415324
0.0414567
0.0413831
0.0413118
0.0412428
0.0411763
0.0411127
0.0410524
0.0409959
0.0409433
0.0408948
0.0408507
0.0408113
0.0407768
0.0407471
0.0407221
0.0407016
0.040686
0.040675
0.0406684
0.0406657
0.0406672
0.0406731
0.0406827
0.0406956
0.0407117
0.040731
0.0407533
0.0407785
0.0408056
0.0408347
0.0408654
0.0408955
0.0409292
0.0409574
0.0409915
0.0410146
0.0410402
0.0410654
0.0410906
0.0411171
0.0411456
0.0411757
0.0412078
0.0412412
0.0412764
0.0413122
0.0413492
0.0413866
0.0414247
0.0414624
0.0415
0.041537
0.0415736
0.0416099
0.0416459
0.0416821
0.0417188
0.0417564
0.0417949
0.041834
0.0418735
0.041912
0.0419494
0.0419844
0.0420173
0.042048
0.0420766
0.0421033
0.0421285
0.0421522
0.0421751
0.042197
0.0422185
0.042239
0.0422588
0.0422773
0.0422944
0.0423102
0.042323
0.0423344
0.0423409
0.0423449
0.0423454
0.0423418
0.0423353
0.042325
0.0423136
0.0423019
0.0422915
0.0422826
0.0422752
0.04227
0.0422683
0.0422675
0.0591289
0.0440495
0.0437161
0.0435966
0.0434543
0.0433223
0.0431991
0.0431082
0.0430206
0.0429386
0.0428565
0.0427721
0.0426846
0.042595
0.0425049
0.0424159
0.0423287
0.0422441
0.0421616
0.042081
0.0420017
0.0419229
0.041844
0.041765
0.0416859
0.0416072
0.0415294
0.0414531
0.0413788
0.0413068
0.041237
0.0411697
0.0411052
0.0410439
0.0409864
0.0409327
0.040883
0.0408377
0.0407971
0.0407613
0.0407304
0.0407041
0.0406825
0.0406655
0.0406533
0.0406454
0.0406417
0.0406419
0.0406463
0.0406548
0.0406664
0.0406812
0.0406991
0.0407201
0.0407438
0.0407696
0.0407969
0.0408259
0.0408543
0.040887
0.0409145
0.0409473
0.0409688
0.0409934
0.041017
0.0410403
0.0410648
0.0410915
0.0411198
0.0411504
0.0411821
0.0412156
0.0412494
0.041284
0.0413187
0.0413539
0.0413888
0.0414236
0.0414579
0.0414918
0.0415255
0.0415588
0.0415919
0.0416251
0.0416589
0.0416932
0.0417285
0.0417644
0.0418
0.0418352
0.0418682
0.0418991
0.0419276
0.0419535
0.041977
0.0419986
0.0420187
0.0420377
0.042056
0.0420738
0.0420909
0.0421076
0.0421233
0.0421379
0.042151
0.0421619
0.0421713
0.0421764
0.0421793
0.0421786
0.0421738
0.0421661
0.0421543
0.0421412
0.0421278
0.0421166
0.0421081
0.0421029
0.0421003
0.0421
0.0421047
0.0591289
0.0440451
0.0437112
0.0435929
0.0434513
0.0433199
0.043197
0.0431064
0.0430191
0.0429372
0.0428554
0.0427712
0.0426839
0.0425944
0.0425044
0.0424154
0.0423282
0.0422435
0.0421609
0.0420802
0.0420006
0.0419216
0.0418426
0.0417633
0.0416839
0.0416048
0.0415265
0.0414497
0.0413748
0.0413021
0.0412316
0.0411635
0.041098
0.0410359
0.0409773
0.0409225
0.0408717
0.0408253
0.0407834
0.0407465
0.0407143
0.0406868
0.0406639
0.0406458
0.0406323
0.0406232
0.0406185
0.0406175
0.0406204
0.0406277
0.0406381
0.0406516
0.0406682
0.0406879
0.0407102
0.0407346
0.0407603
0.0407877
0.0408147
0.040846
0.0408728
0.0409044
0.0409242
0.0409477
0.0409697
0.0409912
0.041014
0.041039
0.0410654
0.0410938
0.0411229
0.0411535
0.0411843
0.0412161
0.0412482
0.041281
0.0413135
0.0413461
0.041378
0.0414093
0.0414401
0.04147
0.0414996
0.0415289
0.0415586
0.0415883
0.0416185
0.0416488
0.0416787
0.0417084
0.041736
0.0417621
0.041786
0.0418076
0.041827
0.0418446
0.0418608
0.0418761
0.0418907
0.041905
0.0419191
0.0419329
0.0419462
0.0419588
0.0419703
0.0419804
0.0419889
0.0419944
0.0419977
0.0419977
0.0419942
0.0419874
0.041977
0.0419648
0.0419527
0.0419427
0.0419361
0.0419328
0.041932
0.0419341
0.0419399
0.0591334
0.0440418
0.0437067
0.0435892
0.0434483
0.0433176
0.0431951
0.0431047
0.0430175
0.0429359
0.0428543
0.0427703
0.0426832
0.0425938
0.0425039
0.0424149
0.0423277
0.042243
0.0421603
0.0420794
0.0419996
0.0419204
0.0418412
0.0417617
0.041682
0.0416025
0.0415238
0.0414465
0.041371
0.0412976
0.0412264
0.0411575
0.0410912
0.0410281
0.0409685
0.0409127
0.0408609
0.0408133
0.0407702
0.040732
0.0406987
0.0406699
0.0406459
0.0406265
0.0406118
0.0406015
0.0405957
0.0405935
0.0405952
0.0406011
0.0406103
0.0406226
0.0406378
0.0406561
0.0406772
0.0407001
0.0407243
0.04075
0.0407755
0.0408051
0.0408309
0.040861
0.0408793
0.0409018
0.0409224
0.0409423
0.0409636
0.0409872
0.0410121
0.0410387
0.0410657
0.0410939
0.0411222
0.0411511
0.0411803
0.04121
0.0412394
0.0412689
0.0412979
0.0413265
0.0413545
0.0413815
0.0414079
0.0414336
0.0414594
0.0414852
0.0415117
0.0415383
0.0415649
0.0415912
0.0416156
0.0416386
0.0416592
0.0416774
0.0416934
0.0417075
0.0417201
0.0417317
0.0417426
0.0417532
0.0417636
0.0417738
0.0417836
0.0417929
0.0418012
0.0418083
0.041814
0.0418177
0.0418189
0.041817
0.0418123
0.0418036
0.0417921
0.0417787
0.0417658
0.0417549
0.0417477
0.0417443
0.0417437
0.041746
0.0417523
0.0591372
0.0440383
0.043702
0.0435856
0.0434454
0.0433154
0.0431931
0.0431029
0.043016
0.0429346
0.0428532
0.0427694
0.0426825
0.0425933
0.0425034
0.0424145
0.0423273
0.0422424
0.0421596
0.0420786
0.0419987
0.0419193
0.0418399
0.0417601
0.0416801
0.0416003
0.0415212
0.0414433
0.0413672
0.0412932
0.0412213
0.0411516
0.0410845
0.0410205
0.0409599
0.0409031
0.0408502
0.0408015
0.0407573
0.0407178
0.0406832
0.0406533
0.0406281
0.0406075
0.0405915
0.0405801
0.0405731
0.0405699
0.0405704
0.0405749
0.040583
0.040594
0.040608
0.040625
0.0406448
0.0406664
0.0406891
0.0407132
0.0407372
0.0407651
0.0407899
0.0408187
0.0408355
0.0408567
0.040876
0.0408942
0.0409141
0.0409362
0.0409592
0.0409835
0.0410078
0.0410332
0.0410586
0.0410851
0.041112
0.0411395
0.041167
0.0411946
0.0412215
0.041248
0.0412737
0.0412982
0.0413219
0.0413446
0.0413671
0.0413893
0.0414119
0.0414344
0.041457
0.0414794
0.0415
0.0415199
0.0415373
0.0415528
0.0415661
0.0415776
0.0415877
0.0415968
0.0416053
0.0416136
0.0416216
0.0416296
0.0416372
0.0416443
0.0416506
0.0416557
0.0416598
0.0416617
0.0416613
0.0416579
0.0416514
0.041641
0.0416277
0.0416126
0.0415977
0.0415849
0.0415758
0.0415709
0.0415688
0.0415696
0.0415674
0.0591424
0.0440348
0.0436971
0.0435819
0.0434424
0.0433131
0.0431911
0.0431012
0.0430145
0.0429333
0.0428521
0.0427685
0.0426818
0.0425927
0.0425029
0.042414
0.0423268
0.0422419
0.042159
0.0420778
0.0419978
0.0419182
0.0418385
0.0417585
0.0416783
0.0415981
0.0415185
0.0414402
0.0413635
0.0412888
0.0412162
0.0411457
0.0410778
0.0410128
0.0409513
0.0408934
0.0408394
0.0407896
0.0407442
0.0407035
0.0406677
0.0406366
0.0406101
0.0405883
0.0405711
0.0405584
0.0405501
0.0405459
0.0405452
0.0405483
0.0405551
0.0405649
0.0405775
0.0405932
0.0406117
0.0406319
0.0406532
0.0406757
0.0406981
0.0407241
0.0407477
0.0407751
0.0407904
0.0408102
0.0408277
0.040844
0.0408621
0.0408823
0.0409035
0.0409259
0.0409482
0.0409713
0.0409944
0.0410183
0.0410426
0.0410676
0.0410927
0.0411181
0.041143
0.0411675
0.0411911
0.0412135
0.041235
0.0412555
0.0412757
0.0412956
0.0413159
0.0413362
0.0413566
0.0413769
0.0413956
0.0414136
0.0414291
0.0414428
0.0414544
0.0414643
0.0414728
0.0414803
0.0414873
0.0414941
0.0415008
0.0415075
0.0415139
0.04152
0.0415251
0.0415294
0.0415329
0.0415339
0.0415327
0.0415289
0.0415215
0.0415106
0.0414966
0.0414809
0.0414652
0.0414516
0.0414419
0.0414368
0.0414353
0.0414376
0.041442
0.0591468
0.0440313
0.0436921
0.0435781
0.0434394
0.0433107
0.0431891
0.0430994
0.0430129
0.042932
0.042851
0.0427677
0.0426811
0.0425922
0.0425024
0.0424135
0.0423263
0.0422414
0.0421584
0.0420771
0.0419968
0.0419171
0.0418372
0.041757
0.0416764
0.0415959
0.0415159
0.041437
0.0413597
0.0412844
0.0412111
0.0411399
0.041071
0.0410051
0.0409426
0.0408837
0.0408286
0.0407776
0.040731
0.0406891
0.0406519
0.0406196
0.0405919
0.0405688
0.0405503
0.0405364
0.0405269
0.0405215
0.0405196
0.0405214
0.0405269
0.0405354
0.0405467
0.040561
0.0405781
0.040597
0.0406169
0.0406378
0.0406587
0.0406829
0.0407053
0.0407313
0.040745
0.040763
0.0407784
0.0407924
0.0408083
0.0408261
0.0408449
0.0408648
0.0408846
0.0409052
0.0409259
0.0409475
0.0409697
0.0409928
0.0410162
0.04104
0.0410632
0.0410859
0.0411074
0.0411278
0.0411472
0.0411652
0.0411827
0.0411997
0.0412169
0.0412341
0.0412515
0.041269
0.0412852
0.0413012
0.0413148
0.041327
0.0413374
0.0413461
0.0413537
0.0413603
0.0413666
0.0413727
0.0413788
0.041385
0.041391
0.0413969
0.0414018
0.0414061
0.0414091
0.0414101
0.0414088
0.0414046
0.0413969
0.0413856
0.0413712
0.0413547
0.041338
0.0413229
0.0413114
0.0413047
0.0413025
0.0413034
0.0413142
0.0591506
0.0440273
0.0436869
0.0435742
0.0434363
0.0433083
0.0431871
0.0430976
0.0430114
0.0429306
0.0428498
0.0427667
0.0426804
0.0425916
0.0425019
0.0424131
0.0423258
0.0422408
0.0421578
0.0420763
0.0419959
0.041916
0.0418359
0.0417554
0.0416746
0.0415937
0.0415132
0.0414338
0.0413559
0.0412799
0.0412059
0.0411339
0.0410642
0.0409973
0.0409338
0.0408738
0.0408176
0.0407654
0.0407175
0.0406743
0.0406359
0.0406022
0.0405732
0.0405488
0.040529
0.0405138
0.040503
0.0404963
0.0404934
0.0404938
0.0404978
0.040505
0.0405149
0.0405278
0.0405435
0.0405609
0.0405792
0.0405985
0.0406178
0.0406401
0.040661
0.0406856
0.0406977
0.0407138
0.040727
0.0407387
0.0407521
0.0407673
0.0407835
0.0408008
0.0408183
0.0408367
0.0408552
0.0408744
0.0408941
0.0409147
0.0409358
0.0409573
0.0409784
0.0409991
0.0410186
0.041037
0.0410542
0.0410701
0.0410854
0.0411001
0.041115
0.0411299
0.041145
0.04116
0.041174
0.041188
0.0411994
0.0412097
0.0412181
0.041225
0.0412306
0.0412354
0.0412397
0.0412439
0.0412482
0.0412525
0.0412567
0.0412608
0.0412642
0.0412669
0.0412682
0.0412677
0.041265
0.0412591
0.0412498
0.0412367
0.0412207
0.0412023
0.0411835
0.0411659
0.0411514
0.0411415
0.0411367
0.0411377
0.0411327
0.059155
0.0440233
0.0436816
0.0435703
0.0434332
0.0433059
0.043185
0.0430958
0.0430098
0.0429292
0.0428487
0.0427658
0.0426797
0.042591
0.0425014
0.0424126
0.0423253
0.0422403
0.0421572
0.0420756
0.041995
0.0419149
0.0418346
0.0417539
0.0416727
0.0415914
0.0415106
0.0414306
0.0413521
0.0412754
0.0412007
0.0411279
0.0410573
0.0409895
0.0409249
0.0408638
0.0408064
0.040753
0.0407039
0.0406593
0.0406196
0.0405845
0.0405542
0.0405285
0.0405074
0.0404908
0.0404787
0.0404707
0.0404666
0.0404658
0.0404683
0.0404741
0.0404827
0.0404942
0.0405083
0.0405241
0.0405409
0.0405587
0.0405764
0.0405969
0.0406164
0.0406392
0.0406497
0.0406639
0.040675
0.0406842
0.0406951
0.0407074
0.0407205
0.0407347
0.0407496
0.0407656
0.0407818
0.0407987
0.0408162
0.0408344
0.0408533
0.0408726
0.0408915
0.0409103
0.0409277
0.0409441
0.0409592
0.0409725
0.0409851
0.0409969
0.0410087
0.0410204
0.0410325
0.0410446
0.041056
0.0410677
0.0410769
0.0410854
0.0410921
0.0410974
0.0411014
0.0411046
0.0411075
0.0411102
0.041113
0.041116
0.041119
0.041122
0.0411243
0.0411262
0.0411266
0.0411253
0.041122
0.0411154
0.0411055
0.0410919
0.0410753
0.0410563
0.0410367
0.0410182
0.0410029
0.0409919
0.0409856
0.0409833
0.0409792
0.0591595
0.0440191
0.0436763
0.0435663
0.04343
0.0433034
0.0431829
0.0430939
0.0430081
0.0429279
0.0428475
0.0427649
0.0426789
0.0425904
0.0425009
0.0424121
0.0423248
0.0422398
0.0421565
0.0420748
0.0419941
0.0419138
0.0418333
0.0417523
0.0416708
0.0415892
0.0415079
0.0414274
0.0413483
0.041271
0.0411955
0.0411219
0.0410504
0.0409816
0.0409159
0.0408537
0.0407951
0.0407405
0.0406901
0.0406442
0.040603
0.0405666
0.0405349
0.0405078
0.0404854
0.0404674
0.0404539
0.0404446
0.0404393
0.0404372
0.0404381
0.0404425
0.0404497
0.0404597
0.0404722
0.0404864
0.0405015
0.0405177
0.0405339
0.0405525
0.0405703
0.040591
0.0405997
0.0406119
0.0406208
0.0406278
0.0406365
0.0406465
0.0406574
0.0406693
0.0406819
0.0406955
0.0407091
0.0407233
0.0407377
0.0407528
0.0407685
0.0407848
0.0408009
0.0408174
0.0408327
0.0408474
0.0408607
0.0408722
0.0408828
0.0408925
0.0409021
0.0409115
0.0409212
0.040931
0.0409403
0.04095
0.0409573
0.0409642
0.0409692
0.0409729
0.0409754
0.0409772
0.0409785
0.0409798
0.0409813
0.0409831
0.040985
0.040987
0.0409885
0.0409896
0.0409896
0.040988
0.0409844
0.0409778
0.040968
0.0409546
0.0409381
0.0409192
0.0408996
0.040881
0.0408654
0.040854
0.0408471
0.0408434
0.040841
0.0591643
0.0440148
0.0436708
0.0435622
0.0434268
0.0433009
0.0431808
0.0430921
0.0430065
0.0429264
0.0428463
0.0427639
0.0426782
0.0425898
0.0425004
0.0424116
0.0423243
0.0422392
0.0421559
0.0420741
0.0419932
0.0419127
0.041832
0.0417508
0.041669
0.041587
0.0415053
0.0414243
0.0413446
0.0412665
0.0411903
0.0411159
0.0410435
0.0409737
0.0409069
0.0408436
0.0407838
0.0407279
0.0406762
0.0406289
0.0405864
0.0405486
0.0405155
0.040487
0.0404631
0.0404438
0.0404289
0.0404182
0.0404115
0.0404083
0.0404079
0.0404106
0.0404164
0.040425
0.0404359
0.0404483
0.0404619
0.0404766
0.0404913
0.040508
0.0405239
0.0405421
0.040549
0.0405591
0.0405657
0.0405706
0.0405774
0.0405855
0.0405946
0.0406043
0.0406146
0.0406256
0.0406365
0.0406478
0.0406592
0.0406712
0.0406837
0.0406969
0.0407101
0.040724
0.0407369
0.0407498
0.040761
0.0407705
0.0407789
0.0407862
0.0407932
0.0408002
0.0408075
0.0408151
0.0408225
0.0408305
0.0408363
0.0408422
0.0408461
0.0408489
0.0408505
0.0408514
0.040852
0.0408525
0.0408534
0.0408545
0.0408561
0.0408577
0.0408592
0.0408601
0.0408602
0.0408589
0.0408558
0.0408499
0.0408408
0.0408281
0.0408124
0.0407943
0.0407754
0.0407574
0.0407423
0.0407312
0.0407246
0.0407214
0.0407198
0.0591694
0.0440103
0.0436653
0.0435581
0.0434235
0.0432984
0.0431786
0.0430902
0.0430048
0.042925
0.0428451
0.0427629
0.0426774
0.0425892
0.0424999
0.0424111
0.0423238
0.0422387
0.0421553
0.0420734
0.0419923
0.0419116
0.0418307
0.0417493
0.0416672
0.0415848
0.0415027
0.0414211
0.0413408
0.0412621
0.0411851
0.0411099
0.0410366
0.0409658
0.0408979
0.0408334
0.0407725
0.0407153
0.0406622
0.0406136
0.0405696
0.0405304
0.0404958
0.0404659
0.0404406
0.0404199
0.0404036
0.0403915
0.0403834
0.0403789
0.0403772
0.0403784
0.0403827
0.0403897
0.0403989
0.0404097
0.0404217
0.0404349
0.040448
0.0404626
0.0404765
0.0404918
0.0404969
0.0405047
0.0405092
0.0405118
0.0405168
0.0405232
0.0405308
0.040539
0.0405475
0.0405561
0.0405643
0.0405725
0.0405806
0.0405891
0.040598
0.0406075
0.0406175
0.0406286
0.0406392
0.0406502
0.0406596
0.0406676
0.0406745
0.0406803
0.0406856
0.0406908
0.0406964
0.0407024
0.0407083
0.0407146
0.0407193
0.0407241
0.0407269
0.0407288
0.0407296
0.0407297
0.0407295
0.0407292
0.0407293
0.0407298
0.0407309
0.0407321
0.0407333
0.040734
0.0407344
0.0407333
0.0407305
0.0407252
0.0407168
0.0407049
0.0406899
0.0406725
0.0406543
0.040637
0.0406225
0.0406119
0.0406057
0.040603
0.0406023
0.0591747
0.0440057
0.0436597
0.0435539
0.0434202
0.0432958
0.0431764
0.0430883
0.0430032
0.0429236
0.0428439
0.042762
0.0426766
0.0425886
0.0424994
0.0424106
0.0423233
0.0422381
0.0421547
0.0420726
0.0419914
0.0419106
0.0418295
0.0417478
0.0416654
0.0415827
0.0415001
0.041418
0.0413371
0.0412577
0.04118
0.0411039
0.0410297
0.0409579
0.040889
0.0408233
0.0407612
0.0407027
0.0406483
0.0405983
0.0405528
0.0405121
0.0404761
0.0404447
0.040418
0.0403959
0.0403781
0.0403647
0.0403551
0.0403492
0.0403464
0.0403462
0.0403489
0.0403544
0.0403619
0.0403711
0.0403815
0.0403933
0.0404049
0.0404173
0.0404291
0.0404415
0.0404451
0.0404507
0.0404527
0.0404527
0.0404551
0.0404594
0.0404651
0.0404713
0.0404778
0.0404843
0.0404902
0.0404959
0.0405011
0.0405065
0.0405123
0.0405186
0.0405256
0.0405337
0.0405416
0.0405503
0.0405576
0.0405638
0.040569
0.040573
0.0405765
0.0405801
0.0405841
0.0405885
0.040593
0.040598
0.0406017
0.0406057
0.0406078
0.0406092
0.0406096
0.0406093
0.0406086
0.040608
0.0406078
0.040608
0.0406089
0.04061
0.0406112
0.0406119
0.0406128
0.0406121
0.0406097
0.0406051
0.0405974
0.0405864
0.0405722
0.0405556
0.0405382
0.0405217
0.0405079
0.0404979
0.0404922
0.0404901
0.0404905
0.0591805
0.0440008
0.0436541
0.0435497
0.0434169
0.0432933
0.0431742
0.0430864
0.0430015
0.0429221
0.0428426
0.042761
0.0426759
0.042588
0.0424988
0.0424101
0.0423228
0.0422376
0.042154
0.0420719
0.0419906
0.0419095
0.0418282
0.0417463
0.0416637
0.0415806
0.0414975
0.041415
0.0413334
0.0412533
0.0411749
0.041098
0.0410229
0.0409501
0.04088
0.0408132
0.0407498
0.0406901
0.0406343
0.0405829
0.040536
0.0404938
0.0404563
0.0404234
0.0403952
0.0403716
0.0403525
0.0403376
0.0403266
0.0403193
0.0403151
0.0403136
0.0403147
0.0403186
0.0403245
0.0403321
0.0403411
0.0403513
0.0403613
0.0403715
0.0403811
0.0403908
0.040393
0.0403965
0.0403957
0.0403936
0.040393
0.0403942
0.0403971
0.0404009
0.0404053
0.0404097
0.0404136
0.0404171
0.04042
0.0404227
0.0404257
0.040429
0.0404329
0.0404379
0.0404432
0.0404495
0.0404548
0.0404594
0.0404633
0.0404659
0.0404682
0.0404706
0.0404734
0.0404766
0.04048
0.0404837
0.0404865
0.0404896
0.0404909
0.0404918
0.0404915
0.0404907
0.0404894
0.0404883
0.0404876
0.0404874
0.0404879
0.0404887
0.0404897
0.0404904
0.0404912
0.0404906
0.0404884
0.0404842
0.0404769
0.0404664
0.0404526
0.0404365
0.0404195
0.0404035
0.0403901
0.0403807
0.0403753
0.0403735
0.0403747
0.059186
0.0439959
0.0436484
0.0435454
0.0434135
0.0432907
0.043172
0.0430844
0.0429998
0.0429207
0.0428414
0.04276
0.0426751
0.0425874
0.0424983
0.0424096
0.0423223
0.042237
0.0421534
0.0420712
0.0419897
0.0419085
0.041827
0.0417448
0.0416619
0.0415785
0.041495
0.041412
0.0413298
0.0412491
0.0411699
0.0410922
0.0410162
0.0409423
0.0408712
0.0408032
0.0407386
0.0406775
0.0406204
0.0405675
0.0405192
0.0404755
0.0404365
0.0404021
0.0403724
0.0403474
0.0403268
0.0403104
0.0402981
0.0402893
0.0402837
0.040281
0.0402807
0.0402828
0.0402872
0.0402932
0.0403007
0.0403095
0.0403178
0.0403259
0.0403338
0.0403409
0.0403413
0.0403429
0.0403399
0.0403355
0.040332
0.0403295
0.0403287
0.0403289
0.0403302
0.0403321
0.040334
0.0403358
0.0403369
0.0403379
0.0403389
0.0403399
0.0403413
0.0403434
0.0403458
0.0403493
0.0403521
0.0403547
0.0403567
0.0403575
0.0403583
0.0403593
0.0403609
0.0403629
0.0403654
0.040368
0.0403701
0.0403724
0.0403731
0.0403736
0.0403728
0.0403717
0.04037
0.0403684
0.0403674
0.0403669
0.0403671
0.0403679
0.0403687
0.0403694
0.04037
0.0403695
0.0403675
0.0403636
0.0403566
0.0403465
0.0403331
0.0403173
0.0403005
0.0402847
0.0402717
0.0402625
0.0402576
0.040256
0.0402578
0.0591921
0.0439907
0.0436426
0.0435411
0.0434101
0.043288
0.0431698
0.0430825
0.0429981
0.0429192
0.0428402
0.042759
0.0426743
0.0425868
0.0424978
0.0424092
0.0423218
0.0422365
0.0421528
0.0420704
0.0419888
0.0419075
0.0418258
0.0417434
0.0416602
0.0415765
0.0414926
0.041409
0.0413263
0.0412448
0.0411649
0.0410864
0.0410095
0.0409346
0.0408624
0.0407932
0.0407273
0.040665
0.0406065
0.0405522
0.0405024
0.0404572
0.0404166
0.0403807
0.0403495
0.0403229
0.0403009
0.0402831
0.0402693
0.0402591
0.040252
0.040248
0.0402463
0.0402468
0.0402495
0.0402541
0.0402601
0.0402672
0.0402738
0.0402799
0.0402861
0.0402906
0.0402891
0.0402891
0.0402841
0.0402774
0.0402714
0.0402659
0.0402614
0.0402578
0.0402558
0.0402545
0.0402539
0.0402535
0.0402528
0.0402521
0.0402513
0.0402502
0.0402494
0.0402492
0.0402489
0.0402497
0.0402499
0.0402502
0.0402503
0.0402495
0.040249
0.0402487
0.040249
0.0402497
0.0402512
0.0402529
0.0402543
0.0402558
0.0402558
0.0402558
0.0402544
0.0402527
0.0402503
0.0402482
0.0402466
0.0402457
0.0402453
0.0402457
0.0402461
0.0402466
0.0402467
0.040246
0.040244
0.04024
0.0402332
0.0402231
0.0402097
0.0401939
0.0401769
0.040161
0.0401478
0.0401387
0.0401338
0.0401323
0.0401343
0.0591989
0.0439854
0.0436367
0.0435367
0.0434067
0.0432854
0.0431676
0.0430806
0.0429964
0.0429177
0.0428389
0.042758
0.0426735
0.0425862
0.0424973
0.0424087
0.0423213
0.0422359
0.0421522
0.0420697
0.041988
0.0419065
0.0418246
0.041742
0.0416585
0.0415744
0.0414901
0.0414061
0.0413227
0.0412406
0.04116
0.0410807
0.0410029
0.040927
0.0408536
0.0407833
0.0407162
0.0406525
0.0405927
0.0405369
0.0404856
0.0404389
0.0403968
0.0403593
0.0403266
0.0402985
0.040275
0.0402557
0.0402405
0.0402288
0.0402204
0.0402149
0.0402119
0.040211
0.040212
0.0402151
0.0402197
0.0402251
0.0402299
0.0402341
0.0402386
0.0402409
0.0402376
0.0402353
0.0402282
0.0402195
0.0402113
0.0402033
0.0401957
0.0401887
0.0401833
0.0401787
0.0401752
0.0401723
0.0401695
0.0401669
0.0401641
0.040161
0.0401581
0.0401552
0.0401524
0.0401504
0.040148
0.0401458
0.0401437
0.0401408
0.0401383
0.0401363
0.0401351
0.0401346
0.040135
0.0401357
0.0401365
0.0401372
0.0401366
0.0401361
0.0401341
0.0401319
0.040129
0.0401264
0.0401242
0.0401228
0.040122
0.040122
0.040122
0.0401222
0.0401221
0.0401212
0.0401192
0.040115
0.0401082
0.0400982
0.0400848
0.0400688
0.0400516
0.0400353
0.0400219
0.0400128
0.0400079
0.0400066
0.0400088
0.0592059
0.04398
0.0436308
0.0435323
0.0434032
0.0432827
0.0431653
0.0430786
0.0429947
0.0429163
0.0428377
0.042757
0.0426727
0.0425855
0.0424968
0.0424082
0.0423208
0.0422354
0.0421515
0.042069
0.0419871
0.0419054
0.0418234
0.0417406
0.0416569
0.0415725
0.0414877
0.0414032
0.0413193
0.0412365
0.0411551
0.041075
0.0409963
0.0409194
0.0408449
0.0407734
0.0407051
0.0406401
0.0405789
0.0405217
0.0404689
0.0404206
0.0403769
0.0403379
0.0403035
0.0402739
0.0402489
0.0402281
0.0402114
0.0401983
0.0401885
0.0401815
0.0401771
0.0401749
0.0401744
0.0401758
0.0401789
0.0401826
0.0401856
0.0401881
0.0401907
0.0401908
0.0401857
0.0401811
0.0401715
0.040161
0.0401511
0.0401416
0.0401324
0.040123
0.0401145
0.0401065
0.0400995
0.0400935
0.0400878
0.0400826
0.0400774
0.0400718
0.0400664
0.0400609
0.0400557
0.0400513
0.0400464
0.0400419
0.0400374
0.0400323
0.0400278
0.0400239
0.040021
0.0400192
0.0400185
0.0400182
0.0400182
0.0400181
0.040017
0.0400157
0.040013
0.0400101
0.0400065
0.0400033
0.0400003
0.0399982
0.0399968
0.0399961
0.0399956
0.0399953
0.0399948
0.0399935
0.0399911
0.0399866
0.0399796
0.0399693
0.0399556
0.0399392
0.0399215
0.0399046
0.0398906
0.0398811
0.0398761
0.0398747
0.0398769
0.0592133
0.0439743
0.0436248
0.0435278
0.0433997
0.0432801
0.043163
0.0430766
0.0429929
0.0429148
0.0428364
0.0427559
0.0426719
0.0425849
0.0424962
0.0424077
0.0423203
0.0422349
0.0421509
0.0420682
0.0419862
0.0419044
0.0418222
0.0417392
0.0416552
0.0415705
0.0414854
0.0414003
0.0413159
0.0412324
0.0411503
0.0410694
0.0409898
0.0409119
0.0408363
0.0407636
0.040694
0.0406278
0.0405651
0.0405065
0.0404522
0.0404024
0.0403571
0.0403165
0.0402805
0.0402493
0.0402228
0.0402005
0.0401824
0.0401679
0.0401566
0.0401482
0.0401423
0.0401387
0.0401369
0.0401368
0.040138
0.0401401
0.0401414
0.0401423
0.0401434
0.0401413
0.0401344
0.0401272
0.0401151
0.0401023
0.0400906
0.0400799
0.0400696
0.0400588
0.040048
0.040037
0.0400266
0.0400169
0.0400078
0.0399994
0.0399912
0.0399829
0.039975
0.0399671
0.0399595
0.0399526
0.0399453
0.0399383
0.0399312
0.0399234
0.0399164
0.0399103
0.0399055
0.039902
0.0398999
0.0398985
0.0398976
0.0398966
0.0398949
0.0398928
0.0398895
0.039886
0.0398818
0.0398779
0.0398743
0.0398715
0.0398695
0.0398683
0.0398673
0.0398665
0.0398656
0.0398639
0.0398611
0.0398563
0.0398491
0.0398385
0.0398246
0.0398078
0.0397894
0.0397717
0.0397571
0.0397471
0.0397418
0.0397404
0.0397424
0.0592209
0.0439685
0.0436187
0.0435233
0.0433962
0.0432774
0.0431608
0.0430746
0.0429912
0.0429133
0.0428351
0.0427549
0.0426711
0.0425843
0.0424957
0.0424072
0.0423199
0.0422343
0.0421503
0.0420675
0.0419854
0.0419034
0.041821
0.0417378
0.0416536
0.0415686
0.0414831
0.0413975
0.0413125
0.0412284
0.0411455
0.0410638
0.0409833
0.0409045
0.0408278
0.0407539
0.0406831
0.0406155
0.0405514
0.0404913
0.0404355
0.0403841
0.0403373
0.040295
0.0402574
0.0402246
0.0401965
0.0401728
0.0401531
0.0401372
0.0401244
0.0401146
0.0401073
0.0401022
0.0400991
0.0400975
0.0400971
0.0400973
0.040097
0.0400962
0.0400959
0.0400916
0.0400831
0.0400737
0.0400589
0.0400433
0.040029
0.0400164
0.0400047
0.0399927
0.0399804
0.0399672
0.0399541
0.0399411
0.0399287
0.0399168
0.0399053
0.0398938
0.039883
0.0398726
0.0398627
0.0398535
0.039844
0.0398348
0.0398253
0.0398151
0.0398058
0.0397974
0.0397904
0.0397851
0.0397812
0.0397784
0.0397763
0.0397741
0.0397715
0.0397685
0.0397645
0.0397601
0.0397551
0.0397504
0.039746
0.0397425
0.0397398
0.0397378
0.0397362
0.0397349
0.0397334
0.0397311
0.0397278
0.0397225
0.0397149
0.039704
0.0396897
0.0396723
0.0396532
0.0396347
0.0396193
0.0396087
0.0396031
0.0396015
0.0396034
0.0592291
0.0439627
0.0436125
0.0435187
0.0433926
0.0432746
0.0431584
0.0430726
0.0429894
0.0429118
0.0428339
0.0427539
0.0426703
0.0425836
0.0424952
0.0424068
0.0423194
0.0422338
0.0421497
0.0420668
0.0419845
0.0419024
0.0418199
0.0417364
0.041652
0.0415666
0.0414808
0.0413948
0.0413091
0.0412244
0.0411408
0.0410583
0.040977
0.0408971
0.0408193
0.0407443
0.0406721
0.0406032
0.0405378
0.0404762
0.0404189
0.040366
0.0403175
0.0402736
0.0402343
0.0401999
0.0401702
0.0401449
0.0401238
0.0401064
0.0400923
0.040081
0.0400723
0.0400659
0.0400613
0.0400583
0.0400563
0.0400549
0.0400529
0.0400505
0.0400485
0.0400422
0.0400324
0.0400217
0.0400049
0.0399866
0.0399693
0.0399536
0.0399393
0.0399254
0.0399112
0.0398961
0.039881
0.0398654
0.0398501
0.0398352
0.0398205
0.0398059
0.0397921
0.0397789
0.0397664
0.0397545
0.0397427
0.039731
0.039719
0.0397064
0.0396945
0.0396837
0.0396743
0.0396668
0.039661
0.0396565
0.0396528
0.0396494
0.0396457
0.0396416
0.0396367
0.0396314
0.0396256
0.03962
0.0396147
0.0396105
0.039607
0.0396044
0.0396021
0.0396003
0.0395982
0.0395953
0.0395915
0.0395858
0.0395779
0.0395667
0.0395521
0.0395343
0.0395146
0.0394953
0.039479
0.0394677
0.0394618
0.0394602
0.0394618
0.0592371
0.0439566
0.0436062
0.0435141
0.043389
0.0432719
0.0431561
0.0430706
0.0429877
0.0429103
0.0428326
0.0427528
0.0426695
0.042583
0.0424947
0.0424063
0.0423189
0.0422333
0.0421491
0.0420661
0.0419837
0.0419014
0.0418187
0.0417351
0.0416504
0.0415647
0.0414785
0.041392
0.0413058
0.0412205
0.0411361
0.0410529
0.0409706
0.0408898
0.0408109
0.0407347
0.0406613
0.040591
0.0405242
0.0404611
0.0404023
0.0403478
0.0402977
0.0402521
0.0402112
0.0401751
0.0401437
0.0401169
0.0400943
0.0400754
0.0400598
0.0400472
0.0400371
0.0400293
0.0400233
0.0400188
0.0400154
0.0400124
0.0400088
0.0400047
0.040001
0.0399926
0.0399817
0.0399698
0.0399516
0.0399313
0.0399114
0.0398922
0.0398744
0.0398575
0.0398408
0.0398235
0.0398062
0.0397883
0.0397704
0.0397528
0.0397353
0.039718
0.0397015
0.0396856
0.0396705
0.0396562
0.0396419
0.039628
0.0396136
0.0395984
0.039584
0.0395706
0.0395588
0.0395488
0.0395407
0.0395342
0.0395286
0.0395236
0.0395184
0.0395131
0.0395071
0.0395007
0.0394938
0.0394873
0.0394809
0.0394757
0.0394713
0.0394678
0.0394647
0.0394622
0.0394593
0.0394558
0.0394513
0.0394451
0.0394366
0.0394251
0.0394103
0.039392
0.0393717
0.0393514
0.0393342
0.0393221
0.0393157
0.0393139
0.0393152
0.0592457
0.0439504
0.0435998
0.0435093
0.0433854
0.0432691
0.0431538
0.0430686
0.0429859
0.0429087
0.0428313
0.0427518
0.0426686
0.0425824
0.0424941
0.0424058
0.0423185
0.0422328
0.0421485
0.0420654
0.0419828
0.0419004
0.0418175
0.0417337
0.0416488
0.0415628
0.0414762
0.0413893
0.0413026
0.0412166
0.0411315
0.0410475
0.0409644
0.0408825
0.0408026
0.0407252
0.0406505
0.0405789
0.0405106
0.0404461
0.0403857
0.0403296
0.0402779
0.0402306
0.0401881
0.0401503
0.0401173
0.0400889
0.0400647
0.0400444
0.0400274
0.0400133
0.0400019
0.0399927
0.0399853
0.0399793
0.0399746
0.0399702
0.0399649
0.0399592
0.0399537
0.0399433
0.0399311
0.0399179
0.0398983
0.0398765
0.0398543
0.0398319
0.0398104
0.0397898
0.0397697
0.0397497
0.03973
0.03971
0.03969
0.0396701