/*--------------------------------*- C++ -*----------------------------------*\
| =========                 |                                                 |
| \\      /  F ield         | OpenFOAM: The Open Source CFD Toolbox           |
|  \\    /   O peration     | Version:  2412                                  |
|   \\  /    A nd           | Website:  www.openfoam.com                      |
|    \\/     M anipulation  |                                                 |
\*---------------------------------------------------------------------------*/
FoamFile
{
    version     2.0;
    format      ascii;
    arch        "LSB;label=32;scalar=64";
    class       volScalarField;
    location    "0.031";
    object      T;
}
// * * * * * * * * * * * * * * * * * * * * * * * * * * * * * * * * * * * * * //

dimensions      [0 0 0 1 0 0 0];

internalField   nonuniform List<scalar> 
9831
(
202.546
216.086
202.328
216.015
217.621
217.985
218.325
218.751
219.336
220
220.578
221.021
221.379
221.704
222.018
222.297
222.525
222.746
222.985
223.235
223.483
223.719
223.948
224.17
224.387
224.593
224.788
224.97
225.138
225.295
225.441
225.577
225.7
225.816
225.929
226.039
226.142
226.235
226.322
226.409
226.497
226.585
226.671
226.754
226.837
226.918
226.999
227.077
227.154
227.228
227.297
227.361
202.114
215.945
217.581
217.955
218.303
218.739
219.33
219.996
220.573
221.015
221.371
221.695
222.007
222.285
222.512
222.733
222.973
223.223
223.471
223.708
223.937
224.16
224.377
224.584
224.78
224.962
225.131
225.289
225.436
225.572
225.697
225.813
225.926
226.037
226.14
226.233
226.321
226.408
226.497
226.585
226.67
226.753
226.835
226.917
226.997
227.076
227.152
227.226
227.295
227.358
227.417
227.471
201.903
215.875
217.54
217.924
218.283
218.727
219.325
219.993
220.568
221.008
221.363
221.686
221.997
222.272
222.498
222.72
222.961
223.212
223.459
223.697
223.927
224.15
224.368
224.575
224.772
224.955
225.124
225.283
225.431
225.568
225.693
225.81
225.924
226.034
226.138
226.232
226.32
226.407
226.496
226.584
226.669
226.752
226.834
226.916
226.996
227.074
227.151
227.223
227.292
227.355
227.413
227.467
227.517
227.563
201.698
215.806
217.5
217.895
218.262
218.715
219.32
219.99
220.564
221.002
221.355
221.677
221.987
222.26
222.485
222.707
222.949
223.2
223.448
223.686
223.916
224.14
224.358
224.567
224.764
224.947
225.118
225.277
225.426
225.564
225.689
225.807
225.921
226.032
226.136
226.23
226.318
226.406
226.496
226.583
226.668
226.751
226.833
226.915
226.995
227.073
227.149
227.221
227.289
227.352
227.41
227.464
227.514
227.559
227.601
227.637
227.668
227.694
227.713
227.726
227.733
227.733
227.726
227.714
227.695
227.67
227.639
227.603
227.561
227.514
227.462
227.406
227.346
227.282
227.215
227.145
227.072
226.997
226.92
226.842
226.763
226.683
226.602
226.521
226.44
226.359
226.279
226.199
226.12
226.042
225.966
225.89
225.816
225.743
225.672
225.603
225.535
225.469
225.405
225.343
225.282
225.224
225.167
225.112
225.059
225.007
224.957
224.909
224.862
224.817
224.775
224.734
224.695
224.659
224.624
224.591
224.56
224.534
224.506
201.495
215.737
217.46
217.866
218.243
218.704
219.315
219.987
220.559
220.996
221.348
221.669
221.977
222.248
222.472
222.695
222.937
223.189
223.437
223.675
223.906
224.13
224.349
224.558
224.756
224.94
225.111
225.271
225.421
225.559
225.686
225.804
225.919
226.03
226.134
226.228
226.317
226.405
226.495
226.582
226.667
226.75
226.832
226.913
226.993
227.071
227.147
227.219
227.286
227.349
227.407
227.46
227.51
227.556
227.598
227.634
227.665
227.691
227.71
227.723
227.731
227.731
227.725
227.713
227.695
227.671
227.641
227.606
227.565
227.519
227.469
227.414
227.356
227.294
227.229
227.161
227.09
227.018
226.943
226.867
226.79
226.713
226.634
226.556
226.477
226.399
226.321
226.244
226.168
226.092
226.018
225.945
225.874
225.804
225.735
225.668
225.603
225.539
225.477
225.417
225.359
225.303
225.248
225.195
225.144
225.094
225.046
224.999
224.954
224.911
224.87
224.831
224.795
224.76
224.726
224.695
224.665
224.639
224.613
224.6
224.547
201.298
215.669
217.421
217.837
218.223
218.692
219.31
219.984
220.555
220.99
221.341
221.661
221.967
222.236
222.46
222.683
222.926
223.178
223.426
223.664
223.895
224.121
224.34
224.549
224.748
224.932
225.104
225.265
225.416
225.555
225.682
225.801
225.916
226.028
226.132
226.227
226.316
226.404
226.494
226.582
226.666
226.749
226.831
226.912
226.992
227.07
227.145
227.216
227.283
227.345
227.403
227.457
227.507
227.553
227.595
227.631
227.663
227.688
227.708
227.721
227.729
227.73
227.724
227.713
227.696
227.673
227.644
227.61
227.571
227.527
227.478
227.425
227.368
227.308
227.245
227.179
227.111
227.041
226.968
226.895
226.821
226.746
226.67
226.594
226.518
226.443
226.367
226.293
226.219
226.147
226.075
226.005
225.936
225.868
225.802
225.738
225.675
225.614
225.554
225.497
225.441
225.386
225.334
225.283
225.234
225.186
225.14
225.095
225.052
225.011
224.972
224.934
224.899
224.865
224.834
224.803
224.774
224.751
224.726
224.716
224.664
201.104
215.601
217.382
217.809
218.204
218.682
219.305
219.981
220.551
220.984
221.334
221.653
221.957
222.225
222.447
222.671
222.915
223.167
223.415
223.653
223.885
224.111
224.331
224.541
224.74
224.925
225.098
225.259
225.411
225.551
225.678
225.797
225.913
226.026
226.13
226.225
226.314
226.403
226.493
226.581
226.665
226.748
226.83
226.911
226.99
227.068
227.142
227.213
227.28
227.342
227.4
227.454
227.504
227.551
227.592
227.629
227.66
227.686
227.706
227.719
227.728
227.73
227.724
227.715
227.698
227.676
227.649
227.616
227.578
227.536
227.489
227.438
227.383
227.325
227.264
227.201
227.135
227.067
226.997
226.926
226.855
226.782
226.709
226.636
226.563
226.49
226.418
226.346
226.275
226.205
226.136
226.069
226.003
225.938
225.874
225.812
225.752
225.693
225.636
225.581
225.527
225.475
225.424
225.376
225.328
225.282
225.238
225.195
225.154
225.115
225.077
225.042
225.008
224.976
224.945
224.916
224.888
224.865
224.843
224.836
224.787
200.915
215.534
217.343
217.781
218.186
218.671
219.3
219.978
220.546
220.978
221.327
221.645
221.948
222.214
222.435
222.66
222.904
223.156
223.404
223.643
223.875
224.102
224.322
224.532
224.732
224.917
225.091
225.253
225.405
225.546
225.674
225.794
225.911
226.023
226.128
226.223
226.313
226.402
226.492
226.58
226.664
226.747
226.828
226.909
226.989
227.066
227.14
227.21
227.277
227.339
227.397
227.451
227.502
227.548
227.59
227.627
227.658
227.684
227.704
227.718
227.728
227.73
227.725
227.717
227.702
227.681
227.655
227.623
227.587
227.547
227.502
227.453
227.4
227.344
227.286
227.224
227.161
227.096
227.029
226.961
226.892
226.822
226.752
226.682
226.611
226.542
226.472
226.403
226.335
226.268
226.202
226.137
226.074
226.011
225.95
225.891
225.833
225.777
225.722
225.669
225.618
225.568
225.52
225.473
225.428
225.384
225.341
225.3
225.261
225.223
225.188
225.153
225.121
225.091
225.062
225.033
225.004
224.982
224.962
224.962
224.918
200.73
215.468
217.305
217.754
218.168
218.661
219.296
219.974
220.542
220.973
221.32
221.637
221.939
222.203
222.424
222.648
222.893
223.145
223.394
223.633
223.866
224.092
224.313
224.524
224.724
224.91
225.084
225.248
225.4
225.542
225.67
225.791
225.908
226.021
226.126
226.221
226.311
226.401
226.491
226.579
226.663
226.746
226.827
226.908
226.987
227.064
227.137
227.208
227.274
227.336
227.394
227.448
227.499
227.546
227.588
227.625
227.656
227.683
227.703
227.718
227.728
227.732
227.728
227.721
227.706
227.687
227.662
227.632
227.598
227.559
227.516
227.47
227.419
227.366
227.31
227.251
227.19
227.128
227.064
226.999
226.932
226.866
226.798
226.731
226.664
226.597
226.53
226.464
226.399
226.335
226.272
226.21
226.149
226.089
226.031
225.974
225.919
225.865
225.813
225.762
225.713
225.665
225.619
225.575
225.531
225.489
225.449
225.41
225.372
225.336
225.302
225.27
225.239
225.21
225.181
225.153
225.125
225.104
225.087
225.092
225.05
200.548
215.401
217.267
217.728
218.151
218.651
219.291
219.971
220.538
220.967
221.314
221.629
221.93
222.192
222.412
222.637
222.882
223.135
223.384
223.623
223.856
224.083
224.304
224.516
224.716
224.903
225.078
225.242
225.395
225.537
225.667
225.788
225.905
226.019
226.124
226.22
226.31
226.4
226.49
226.578
226.662
226.744
226.826
226.906
226.985
227.061
227.135
227.204
227.27
227.333
227.391
227.446
227.497
227.543
227.586
227.623
227.655
227.682
227.703
227.718
227.729
227.734
227.732
227.725
227.712
227.694
227.671
227.643
227.611
227.574
227.533
227.489
227.441
227.39
227.336
227.28
227.222
227.163
227.101
227.039
226.976
226.912
226.848
226.784
226.72
226.656
226.592
226.529
226.467
226.406
226.345
226.286
226.228
226.171
226.116
226.062
226.009
225.958
225.908
225.86
225.813
225.767
225.723
225.681
225.64
225.6
225.561
225.524
225.488
225.454
225.421
225.39
225.361
225.333
225.305
225.278
225.251
225.233
225.219
225.225
225.185
200.371
215.336
217.229
217.701
218.134
218.641
219.287
219.969
220.534
220.962
221.307
221.622
221.921
222.181
222.401
222.627
222.872
223.125
223.373
223.613
223.846
224.074
224.296
224.507
224.708
224.896
225.071
225.236
225.39
225.533
225.663
225.784
225.902
226.016
226.122
226.218
226.308
226.398
226.489
226.577
226.661
226.743
226.824
226.905
226.983
227.059
227.132
227.201
227.267
227.33
227.388
227.443
227.494
227.541
227.584
227.621
227.654
227.681
227.703
227.719
227.73
227.737
227.736
227.73
227.718
227.702
227.681
227.655
227.625
227.59
227.552
227.51
227.464
227.416
227.365
227.312
227.257
227.201
227.142
227.083
227.023
226.962
226.901
226.84
226.779
226.718
226.658
226.598
226.539
226.481
226.423
226.367
226.312
226.258
226.205
226.153
226.103
226.054
226.007
225.961
225.916
225.873
225.832
225.791
225.752
225.714
225.677
225.641
225.607
225.575
225.544
225.515
225.487
225.46
225.433
225.407
225.382
225.367
225.353
225.36
225.321
200.197
215.27
217.192
217.676
218.117
218.632
219.283
219.966
220.53
220.956
221.301
221.615
221.912
222.171
222.39
222.616
222.862
223.115
223.364
223.603
223.837
224.065
224.287
224.499
224.701
224.888
225.065
225.23
225.385
225.528
225.659
225.781
225.9
226.014
226.12
226.216
226.307
226.397
226.488
226.576
226.66
226.742
226.823
226.903
226.981
227.056
227.129
227.198
227.264
227.327
227.385
227.441
227.492
227.54
227.582
227.62
227.653
227.681
227.704
227.721
227.733
227.74
227.742
227.736
227.727
227.712
227.693
227.669
227.641
227.608
227.572
227.533
227.49
227.445
227.397
227.347
227.295
227.241
227.186
227.13
227.073
227.016
226.958
226.9
226.842
226.784
226.727
226.67
226.614
226.559
226.505
226.451
226.399
226.348
226.298
226.249
226.201
226.155
226.11
226.066
226.024
225.983
225.944
225.905
225.868
225.832
225.797
225.763
225.731
225.7
225.671
225.643
225.617
225.59
225.564
225.541
225.518
225.504
225.493
225.499
225.46
200.028
215.206
217.155
217.651
218.101
218.623
219.279
219.963
220.526
220.951
221.295
221.608
221.904
222.161
222.38
222.606
222.852
223.105
223.354
223.593
223.828
224.056
224.279
224.491
224.693
224.881
225.058
225.224
225.38
225.524
225.655
225.778
225.897
226.011
226.117
226.214
226.305
226.396
226.487
226.575
226.659
226.741
226.821
226.901
226.979
227.054
227.126
227.195
227.261
227.324
227.383
227.439
227.491
227.538
227.581
227.619
227.653
227.681
227.705
227.723
227.737
227.745
227.747
227.744
227.736
227.723
227.706
227.684
227.658
227.628
227.595
227.558
227.518
227.476
227.431
227.384
227.335
227.284
227.232
227.18
227.126
227.072
227.017
226.963
226.908
226.854
226.8
226.746
226.693
226.641
226.59
226.539
226.49
226.441
226.394
226.348
226.303
226.259
226.217
226.176
226.136
226.097
226.059
226.023
225.988
225.954
225.921
225.889
225.858
225.829
225.801
225.775
225.75
225.724
225.699
225.678
225.657
225.645
225.634
225.641
225.602
199.862
215.141
217.119
217.626
218.085
218.614
219.275
219.96
220.522
220.946
221.289
221.601
221.895
222.151
222.369
222.596
222.842
223.095
223.344
223.584
223.819
224.048
224.27
224.483
224.685
224.874
225.052
225.219
225.375
225.519
225.651
225.774
225.894
226.009
226.115
226.211
226.303
226.394
226.485
226.573
226.657
226.739
226.82
226.899
226.977
227.051
227.123
227.192
227.258
227.321
227.38
227.437
227.489
227.537
227.58
227.619
227.653
227.682
227.706
227.726
227.741
227.75
227.754
227.753
227.747
227.736
227.72
227.701
227.677
227.65
227.619
227.585
227.548
227.509
227.467
227.423
227.377
227.33
227.281
227.232
227.182
227.131
227.08
227.029
226.977
226.926
226.875
226.825
226.775
226.726
226.678
226.631
226.584
226.539
226.494
226.451
226.408
226.367
226.327
226.288
226.251
226.214
226.179
226.145
226.111
226.079
226.048
226.018
225.989
225.962
225.936
225.911
225.886
225.862
225.839
225.819
225.8
225.79
225.781
225.787
225.749
199.699
215.077
217.082
217.602
218.07
218.606
219.271
219.957
220.518
220.941
221.283
221.594
221.887
222.141
222.359
222.586
222.832
223.086
223.334
223.575
223.81
224.039
224.262
224.475
224.678
224.867
225.045
225.213
225.37
225.515
225.647
225.771
225.891
226.006
226.113
226.209
226.301
226.393
226.484
226.572
226.656
226.738
226.818
226.897
226.974
227.048
227.12
227.189
227.255
227.318
227.378
227.435
227.487
227.535
227.579
227.619
227.653
227.683
227.709
227.729
227.745
227.756
227.762
227.762
227.758
227.749
227.736
227.719
227.698
227.673
227.645
227.614
227.58
227.544
227.505
227.465
227.422
227.378
227.333
227.287
227.241
227.193
227.145
227.098
227.05
227.002
226.955
226.908
226.861
226.815
226.77
226.726
226.682
226.639
226.598
226.557
226.517
226.479
226.441
226.405
226.369
226.335
226.302
226.27
226.238
226.208
226.179
226.15
226.123
226.098
226.073
226.049
226.026
226.003
225.981
225.963
225.947
225.938
225.929
225.935
225.897
199.54
215.013
217.047
217.579
218.055
218.597
219.267
219.954
220.514
220.936
221.277
221.587
221.879
222.132
222.349
222.576
222.823
223.076
223.325
223.565
223.801
224.03
224.254
224.467
224.67
224.86
225.039
225.207
225.365
225.51
225.643
225.767
225.888
226.003
226.11
226.207
226.3
226.391
226.483
226.571
226.654
226.736
226.816
226.895
226.972
227.045
227.116
227.185
227.252
227.316
227.376
227.433
227.486
227.534
227.579
227.619
227.654
227.685
227.712
227.734
227.751
227.763
227.771
227.773
227.77
227.764
227.753
227.739
227.72
227.698
227.673
227.645
227.614
227.581
227.546
227.508
227.469
227.429
227.387
227.345
227.301
227.258
227.214
227.169
227.125
227.08
227.036
226.993
226.949
226.907
226.865
226.823
226.783
226.743
226.704
226.666
226.629
226.593
226.558
226.524
226.491
226.459
226.428
226.398
226.369
226.34
226.313
226.286
226.261
226.237
226.214
226.192
226.17
226.148
226.128
226.112
226.097
226.09
226.082
226.087
226.05
199.386
214.95
217.011
217.556
218.04
218.589
219.264
219.951
220.51
220.931
221.271
221.581
221.871
222.122
222.339
222.566
222.814
223.067
223.316
223.556
223.792
224.022
224.246
224.46
224.663
224.853
225.033
225.201
225.36
225.506
225.639
225.764
225.885
226.001
226.108
226.205
226.298
226.39
226.481
226.569
226.653
226.734
226.815
226.893
226.969
227.042
227.113
227.182
227.249
227.313
227.374
227.431
227.484
227.534
227.578
227.619
227.655
227.687
227.715
227.738
227.757
227.771
227.78
227.784
227.784
227.78
227.771
227.759
227.744
227.725
227.702
227.678
227.65
227.62
227.588
227.554
227.519
227.482
227.444
227.405
227.365
227.325
227.285
227.244
227.203
227.162
227.121
227.081
227.041
227.002
226.963
226.924
226.887
226.85
226.814
226.779
226.744
226.711
226.678
226.647
226.616
226.586
226.557
226.529
226.502
226.475
226.45
226.425
226.402
226.379
226.358
226.336
226.316
226.295
226.277
226.263
226.25
226.244
226.236
226.241
226.204
199.234
214.886
216.976
217.533
218.026
218.581
219.26
219.949
220.506
220.926
221.266
221.574
221.863
222.113
222.329
222.557
222.804
223.058
223.307
223.547
223.783
224.014
224.238
224.452
224.655
224.846
225.026
225.196
225.355
225.501
225.635
225.76
225.882
225.998
226.105
226.203
226.296
226.388
226.48
226.567
226.651
226.733
226.813
226.891
226.966
227.039
227.11
227.179
227.246
227.311
227.372
227.43
227.483
227.533
227.578
227.62
227.657
227.69
227.719
227.744
227.764
227.779
227.79
227.797
227.799
227.797
227.791
227.781
227.769
227.753
227.733
227.712
227.687
227.661
227.632
227.602
227.57
227.537
227.502
227.467
227.431
227.395
227.358
227.32
227.283
227.246
227.209
227.172
227.135
227.099
227.063
227.028
226.993
226.96
226.926
226.894
226.862
226.831
226.801
226.772
226.744
226.716
226.69
226.664
226.638
226.614
226.59
226.567
226.546
226.525
226.505
226.485
226.465
226.447
226.43
226.418
226.406
226.402
226.394
226.398
226.364
199.085
214.824
216.942
217.511
218.013
218.574
219.256
219.946
220.502
220.921
221.26
221.568
221.856
222.104
222.32
222.548
222.795
223.049
223.298
223.538
223.775
224.005
224.23
224.444
224.648
224.839
225.02
225.19
225.35
225.497
225.631
225.757
225.878
225.995
226.102
226.201
226.294
226.386
226.478
226.566
226.65
226.731
226.811
226.888
226.964
227.036
227.107
227.176
227.243
227.308
227.37
227.428
227.482
227.532
227.578
227.621
227.659
227.693
227.724
227.75
227.771
227.788
227.801
227.81
227.814
227.815
227.811
227.805
227.795
227.782
227.766
227.747
227.726
227.703
227.678
227.652
227.624
227.594
227.564
227.532
227.5
227.467
227.433
227.4
227.366
227.332
227.299
227.265
227.232
227.199
227.167
227.135
227.103
227.072
227.042
227.012
226.983
226.955
226.927
226.901
226.875
226.849
226.825
226.801
226.778
226.755
226.733
226.712
226.692
226.673
226.654
226.636
226.618
226.6
226.585
226.575
226.565
226.562
226.554
226.558
226.525
198.94
214.761
216.907
217.49
217.999
218.566
219.253
219.943
220.499
220.917
221.255
221.562
221.848
222.095
222.311
222.539
222.787
223.04
223.289
223.53
223.766
223.997
224.222
224.436
224.641
224.832
225.014
225.184
225.345
225.492
225.627
225.753
225.875
225.992
226.1
226.198
226.292
226.384
226.476
226.564
226.648
226.729
226.809
226.886
226.961
227.033
227.104
227.173
227.241
227.306
227.368
227.426
227.481
227.532
227.579
227.622
227.661
227.697
227.729
227.756
227.779
227.798
227.813
227.824
227.831
227.834
227.833
227.829
227.822
227.812
227.8
227.784
227.767
227.748
227.726
227.703
227.679
227.653
227.626
227.598
227.57
227.541
227.511
227.481
227.451
227.421
227.391
227.361
227.331
227.301
227.272
227.243
227.215
227.187
227.16
227.133
227.107
227.081
227.056
227.032
227.008
226.985
226.963
226.941
226.92
226.899
226.879
226.86
226.842
226.824
226.807
226.79
226.773
226.758
226.744
226.736
226.727
226.726
226.719
226.722
226.692
198.798
214.698
216.873
217.469
217.986
218.559
219.25
219.941
220.495
220.912
221.249
221.555
221.841
222.086
222.301
222.53
222.778
223.031
223.28
223.521
223.758
223.989
224.214
224.429
224.633
224.825
225.007
225.178
225.339
225.488
225.623
225.75
225.872
225.989
226.097
226.196
226.29
226.382
226.474
226.562
226.646
226.727
226.807
226.884
226.958
227.03
227.101
227.17
227.238
227.304
227.366
227.425
227.48
227.531
227.579
227.623
227.664
227.701
227.734
227.763
227.788
227.808
227.825
227.838
227.848
227.853
227.855
227.854
227.85
227.844
227.835
227.823
227.809
227.793
227.776
227.757
227.736
227.714
227.691
227.667
227.643
227.617
227.592
227.565
227.539
227.512
227.486
227.459
227.433
227.407
227.381
227.355
227.33
227.305
227.28
227.256
227.233
227.21
227.187
227.166
227.144
227.124
227.103
227.084
227.064
227.046
227.028
227.011
226.994
226.978
226.962
226.946
226.931
226.917
226.905
226.898
226.891
226.891
226.885
226.888
226.859
198.659
214.636
216.84
217.448
217.973
218.552
219.246
219.938
220.492
220.908
221.244
221.549
221.833
222.078
222.292
222.521
222.769
223.022
223.271
223.512
223.749
223.981
224.206
224.421
224.626
224.819
225.001
225.173
225.334
225.483
225.619
225.746
225.869
225.986
226.095
226.193
226.287
226.38
226.472
226.56
226.644
226.725
226.805
226.881
226.955
227.027
227.097
227.167
227.235
227.301
227.364
227.424
227.479
227.531
227.58
227.625
227.667
227.705
227.74
227.77
227.797
227.819
227.838
227.854
227.865
227.874
227.879
227.881
227.88
227.877
227.871
227.863
227.853
227.841
227.827
227.811
227.795
227.777
227.757
227.737
227.717
227.695
227.673
227.651
227.628
227.606
227.583
227.56
227.537
227.514
227.491
227.469
227.447
227.425
227.403
227.382
227.361
227.341
227.321
227.302
227.283
227.265
227.247
227.229
227.212
227.195
227.179
227.164
227.149
227.134
227.12
227.106
227.092
227.08
227.069
227.064
227.058
227.06
227.055
227.057
227.03
198.524
214.574
216.807
217.428
217.961
218.545
219.243
219.935
220.488
220.903
221.239
221.544
221.826
222.069
222.284
222.513
222.761
223.014
223.263
223.504
223.741
223.973
224.199
224.414
224.619
224.812
224.995
225.167
225.329
225.478
225.614
225.742
225.865
225.983
226.092
226.191
226.285
226.378
226.47
226.558
226.642
226.724
226.802
226.878
226.952
227.023
227.094
227.164
227.233
227.299
227.362
227.422
227.478
227.531
227.581
227.627
227.67
227.71
227.746
227.778
227.806
227.831
227.852
227.87
227.884
227.895
227.903
227.908
227.911
227.911
227.908
227.904
227.898
227.889
227.879
227.868
227.855
227.841
227.826
227.81
227.793
227.776
227.758
227.739
227.72
227.701
227.682
227.663
227.643
227.624
227.604
227.585
227.566
227.547
227.529
227.51
227.492
227.475
227.458
227.441
227.424
227.408
227.393
227.377
227.362
227.347
227.333
227.32
227.307
227.294
227.281
227.268
227.256
227.246
227.237
227.233
227.229
227.231
227.226
227.228
227.204
198.391
214.512
216.774
217.409
217.949
218.538
219.24
219.933
220.485
220.899
221.234
221.538
221.819
222.061
222.275
222.504
222.752
223.005
223.254
223.496
223.733
223.965
224.191
224.406
224.612
224.805
224.988
225.161
225.324
225.474
225.61
225.738
225.862
225.98
226.089
226.188
226.283
226.376
226.468
226.556
226.641
226.722
226.8
226.876
226.949
227.02
227.091
227.161
227.23
227.297
227.361
227.421
227.478
227.531
227.582
227.629
227.674
227.715
227.752
227.786
227.816
227.843
227.866
227.886
227.903
227.917
227.928
227.937
227.943
227.946
227.947
227.946
227.944
227.939
227.933
227.926
227.917
227.907
227.896
227.884
227.871
227.857
227.843
227.829
227.814
227.798
227.783
227.767
227.751
227.735
227.719
227.703
227.688
227.672
227.656
227.641
227.626
227.611
227.596
227.582
227.568
227.554
227.541
227.528
227.515
227.502
227.49
227.478
227.467
227.456
227.444
227.433
227.422
227.414
227.407
227.406
227.403
227.405
227.401
227.403
227.38
198.261
214.45
216.742
217.389
217.937
218.532
219.237
219.93
220.481
220.895
221.229
221.532
221.812
222.053
222.267
222.496
222.744
222.997
223.246
223.487
223.725
223.957
224.183
224.399
224.605
224.798
224.982
225.156
225.319
225.469
225.606
225.735
225.859
225.977
226.086
226.186
226.28
226.374
226.466
226.554
226.639
226.72
226.798
226.873
226.946
227.017
227.087
227.158
227.227
227.295
227.359
227.42
227.477
227.532
227.583
227.632
227.677
227.72
227.759
227.794
227.826
227.855
227.881
227.903
227.923
227.94
227.954
227.966
227.975
227.982
227.987
227.99
227.991
227.991
227.989
227.985
227.98
227.974
227.967
227.96
227.951
227.941
227.931
227.921
227.91
227.898
227.886
227.874
227.862
227.849
227.837
227.824
227.812
227.799
227.787
227.774
227.762
227.75
227.738
227.726
227.715
227.703
227.692
227.681
227.67
227.66
227.65
227.64
227.63
227.62
227.61
227.6
227.591
227.585
227.58
227.581
227.579
227.582
227.578
227.579
227.559
198.134
214.388
216.71
217.371
217.926
218.525
219.234
219.928
220.478
220.891
221.224
221.526
221.805
222.045
222.258
222.488
222.736
222.989
223.237
223.479
223.717
223.95
224.176
224.392
224.597
224.792
224.976
225.15
225.314
225.464
225.602
225.731
225.855
225.974
226.083
226.183
226.278
226.371
226.464
226.552
226.637
226.718
226.795
226.87
226.942
227.013
227.084
227.155
227.225
227.292
227.357
227.418
227.477
227.532
227.585
227.635
227.681
227.725
227.766
227.803
227.837
227.868
227.896
227.921
227.943
227.963
227.981
227.996
228.009
228.019
228.028
228.035
228.04
228.043
228.045
228.046
228.045
228.043
228.04
228.036
228.032
228.026
228.02
228.014
228.007
227.999
227.991
227.983
227.974
227.965
227.956
227.947
227.938
227.928
227.919
227.909
227.9
227.891
227.882
227.872
227.863
227.854
227.846
227.837
227.828
227.82
227.811
227.803
227.795
227.787
227.779
227.77
227.763
227.76
227.757
227.758
227.758
227.761
227.757
227.758
227.74
198.009
214.327
216.679
217.353
217.915
218.519
219.231
219.925
220.475
220.886
221.22
221.521
221.799
222.037
222.25
222.48
222.728
222.981
223.229
223.471
223.709
223.942
224.168
224.384
224.59
224.785
224.97
225.144
225.309
225.459
225.597
225.727
225.852
225.971
226.08
226.18
226.275
226.369
226.461
226.55
226.635
226.715
226.793
226.867
226.939
227.01
227.081
227.152
227.222
227.29
227.355
227.417
227.476
227.533
227.586
227.637
227.685
227.731
227.773
227.812
227.848
227.881
227.911
227.939
227.965
227.987
228.008
228.027
228.043
228.057
228.07
228.08
228.089
228.097
228.103
228.108
228.111
228.114
228.115
228.115
228.115
228.114
228.112
228.109
228.106
228.102
228.098
228.094
228.089
228.083
228.078
228.072
228.066
228.06
228.054
228.047
228.041
228.034
228.028
228.021
228.015
228.008
228.002
227.995
227.989
227.982
227.976
227.97
227.964
227.957
227.95
227.943
227.938
227.938
227.936
227.939
227.938
227.941
227.938
227.94
227.924
197.887
214.265
216.648
217.335
217.904
218.513
219.228
219.923
220.471
220.882
221.215
221.515
221.792
222.029
222.242
222.472
222.72
222.973
223.221
223.463
223.701
223.934
224.161
224.377
224.583
224.778
224.963
225.139
225.303
225.455
225.593
225.723
225.848
225.968
226.077
226.177
226.272
226.366
226.459
226.548
226.633
226.713
226.79
226.864
226.935
227.006
227.077
227.149
227.219
227.288
227.353
227.416
227.476
227.533
227.588
227.64
227.69
227.736
227.78
227.821
227.859
227.894
227.928
227.958
227.986
228.012
228.036
228.058
228.078
228.096
228.112
228.127
228.14
228.151
228.161
228.17
228.178
228.185
228.19
228.195
228.199
228.202
228.204
228.206
228.206
228.207
228.207
228.206
228.205
228.203
228.201
228.199
228.196
228.193
228.19
228.187
228.183
228.18
228.176
228.172
228.168
228.164
228.16
228.156
228.151
228.147
228.143
228.139
228.134
228.129
228.123
228.119
228.117
228.118
228.117
228.12
228.121
228.124
228.122
228.124
228.111
197.769
214.204
216.617
217.318
217.894
218.507
219.225
219.92
220.468
220.878
221.21
221.51
221.786
222.021
222.234
222.464
222.712
222.965
223.213
223.455
223.694
223.927
224.153
224.37
224.576
224.771
224.957
225.133
225.298
225.45
225.589
225.719
225.845
225.964
226.074
226.174
226.269
226.364
226.457
226.546
226.631
226.711
226.787
226.86
226.931
227.002
227.074
227.146
227.216
227.285
227.351
227.415
227.476
227.534
227.59
227.643
227.694
227.742
227.787
227.83
227.87
227.908
227.944
227.977
228.009
228.038
228.065
228.09
228.114
228.136
228.156
228.174
228.191
228.207
228.221
228.235
228.247
228.258
228.268
228.277
228.285
228.292
228.298
228.304
228.309
228.314
228.317
228.321
228.323
228.325
228.327
228.328
228.329
228.329
228.329
228.329
228.328
228.328
228.327
228.326
228.324
228.322
228.321
228.319
228.317
228.315
228.312
228.31
228.307
228.303
228.3
228.299
228.299
228.301
228.3
228.305
228.306
228.31
228.309
228.312
228.301
197.654
214.142
216.587
217.301
217.883
218.501
219.222
219.918
220.465
220.874
221.206
221.505
221.779
222.014
222.226
222.456
222.705
222.957
223.205
223.447
223.686
223.919
224.146
224.362
224.569
224.765
224.951
225.127
225.293
225.445
225.584
225.715
225.841
225.961
226.071
226.171
226.267
226.361
226.455
226.544
226.628
226.708
226.784
226.857
226.928
226.998
227.07
227.142
227.214
227.283
227.35
227.414
227.475
227.535
227.592
227.646
227.698
227.748
227.795
227.84
227.882
227.922
227.961
227.997
228.031
228.064
228.095
228.124
228.151
228.176
228.2
228.223
228.244
228.263
228.282
228.299
228.316
228.331
228.345
228.359
228.371
228.383
228.394
228.404
228.413
228.421
228.429
228.436
228.443
228.449
228.454
228.459
228.463
228.467
228.47
228.473
228.475
228.478
228.479
228.481
228.482
228.483
228.484
228.484
228.484
228.484
228.484
228.483
228.482
228.481
228.48
228.481
228.482
228.485
228.485
228.49
228.492
228.496
228.498
228.502
228.494
197.54
214.081
216.557
217.285
217.873
218.496
219.22
219.915
220.462
220.871
221.201
221.499
221.773
222.006
222.219
222.449
222.697
222.949
223.197
223.439
223.678
223.912
224.139
224.355
224.562
224.758
224.945
225.121
225.288
225.44
225.58
225.711
225.837
225.957
226.067
226.168
226.264
226.359
226.452
226.542
226.626
226.705
226.781
226.853
226.924
226.995
227.067
227.139
227.211
227.281
227.348
227.413
227.475
227.536
227.594
227.65
227.703
227.754
227.803
227.849
227.894
227.937
227.978
228.017
228.055
228.09
228.124
228.157
228.188
228.217
228.245
228.271
228.297
228.321
228.344
228.366
228.386
228.406
228.425
228.443
228.46
228.476
228.491
228.505
228.519
228.531
228.543
228.554
228.564
228.574
228.583
228.591
228.599
228.606
228.613
228.619
228.624
228.629
228.634
228.638
228.642
228.645
228.649
228.651
228.654
228.656
228.658
228.659
228.66
228.66
228.662
228.665
228.668
228.673
228.674
228.678
228.681
228.686
228.69
228.695
228.69
197.426
214.019
216.528
217.269
217.864
218.49
219.217
219.913
220.458
220.867
221.197
221.494
221.766
221.999
222.211
222.441
222.69
222.941
223.189
223.432
223.671
223.904
224.131
224.348
224.555
224.751
224.939
225.116
225.282
225.435
225.575
225.707
225.834
225.954
226.064
226.165
226.261
226.356
226.45
226.539
226.624
226.702
226.777
226.849
226.92
226.991
227.063
227.136
227.208
227.278
227.346
227.412
227.475
227.537
227.596
227.653
227.708
227.76
227.811
227.859
227.906
227.952
227.996
228.038
228.078
228.117
228.155
228.191
228.225
228.259
228.29
228.321
228.351
228.379
228.406
228.432
228.457
228.482
228.505
228.527
228.548
228.569
228.588
228.607
228.625
228.642
228.657
228.673
228.687
228.7
228.713
228.725
228.736
228.747
228.757
228.766
228.775
228.783
228.791
228.798
228.804
228.81
228.816
228.821
228.825
228.83
228.833
228.837
228.839
228.842
228.845
228.85
228.855
228.861
228.864
228.869
228.873
228.878
228.884
228.889
228.887
197.317
213.957
216.499
217.253
217.854
218.485
219.214
219.911
220.455
220.863
221.192
221.489
221.76
221.992
222.204
222.434
222.682
222.934
223.182
223.424
223.663