/*--------------------------------*- C++ -*----------------------------------*\
| =========                 |                                                 |
| \\      /  F ield         | OpenFOAM: The Open Source CFD Toolbox           |
|  \\    /   O peration     | Version:  2412                                  |
|   \\  /    A nd           | Website:  www.openfoam.com                      |
|    \\/     M anipulation  |                                                 |
\*---------------------------------------------------------------------------*/
FoamFile
{
    version     2.0;
    format      ascii;
    arch        "LSB;label=32;scalar=64";
    class       volScalarField;
    location    "0.114";
    object      T;
}
// * * * * * * * * * * * * * * * * * * * * * * * * * * * * * * * * * * * * * //

dimensions      [0 0 0 1 0 0 0];

internalField   nonuniform List<scalar> 
9922
(
249.296
219.088
220.95
222.472
222.905
223.087
223.032
222.942
222.816
222.678
222.534
222.404
222.292
222.202
222.129
222.069
222.015
221.959
221.896
221.824
221.738
221.638
221.521
221.388
221.237
221.069
220.885
220.682
220.462
220.225
219.971
219.7
219.412
219.106
218.781
218.436
218.069
217.68
217.267
216.828
216.362
215.865
215.336
214.772
214.169
213.523
212.831
212.087
211.284
210.412
209.458
208.401
207.197
205.774
204.07
202.067
199.951
197.904
196.026
194.341
192.812
191.444
190.19
189.053
188.015
187.06
186.192
185.399
184.666
183.981
183.339
182.731
182.158
181.621
181.14
180.692
180.277
179.876
179.491
179.118
178.758
178.415
178.088
177.779
177.485
177.205
176.936
176.679
176.433
176.197
175.971
175.754
175.545
175.346
175.154
174.971
174.795
174.625
174.461
174.301
174.143
173.991
173.849
173.718
173.594
173.469
173.339
173.202
173.061
172.926
172.811
172.73
172.688
172.677
172.689
172.727
172.791
172.863
172.923
172.953
172.887
249.331
219.065
220.923
222.452
222.89
223.075
223.022
222.934
222.809
222.673
222.529
222.4
222.288
222.197
222.125
222.065
222.011
221.955
221.893
221.82
221.735
221.634
221.518
221.384
221.233
221.064
220.879
220.676
220.456
220.218
219.963
219.691
219.402
219.094
218.768
218.421
218.052
217.66
217.244
216.801
216.33
215.828
215.293
214.72
214.107
213.449
212.741
211.977
211.149
210.247
209.253
208.142
206.864
205.368
203.629
201.654
199.649
197.729
195.963
194.348
192.882
191.535
190.305
189.168
188.121
187.164
186.284
185.475
184.728
184.029
183.371
182.75
182.183
181.666
181.193
180.739
180.304
179.882
179.477
179.091
178.728
178.386
178.063
177.756
177.463
177.183
176.913
176.655
176.407
176.173
175.948
175.733
175.525
175.325
175.133
174.948
174.77
174.601
174.438
174.285
174.142
174.008
173.88
173.756
173.634
173.511
173.381
173.245
173.105
172.97
172.854
172.773
172.73
172.718
172.73
172.767
172.831
172.905
172.965
172.997
172.933
249.369
219.043
220.896
222.432
222.876
223.064
223.011
222.924
222.802
222.667
222.524
222.395
222.283
222.193
222.121
222.061
222.007
221.951
221.889
221.816
221.731
221.631
221.514
221.38
221.228
221.06
220.874
220.67
220.449
220.211
219.955
219.682
219.392
219.083
218.755
218.406
218.035
217.641
217.222
216.775
216.3
215.793
215.25
214.67
214.047
213.376
212.653
211.871
211.02
210.087
209.055
207.894
206.558
205.02
203.272
201.363
199.447
197.629
195.943
194.389
192.952
191.626
190.391
189.252
188.2
187.226
186.332
185.512
184.752
184.045
183.39
182.786
182.231
181.706
181.213
180.737
180.286
179.863
179.471
179.102
178.756
178.425
178.105
177.799
177.505
177.224
176.954
176.694
176.445
176.21
175.985
175.769
175.56
175.359
175.166
174.982
174.805
174.635
174.472
174.312
174.156
174.007
173.866
173.735
173.609
173.485
173.355
173.219
173.08
172.945
172.831
172.751
172.711
172.702
172.718
172.761
172.831
172.908
172.972
173.005
172.947
249.41
219.021
220.871
222.413
222.861
223.052
223
222.915
222.795
222.662
222.52
222.39
222.279
222.189
222.117
222.057
222.003
221.947
221.885
221.813
221.728
221.627
221.51
221.375
221.224
221.055
220.868
220.664
220.443
220.203
219.947
219.673
219.382
219.072
218.742
218.392
218.019
217.622
217.2
216.75
216.27
215.758
215.209
214.621
213.989
213.307
212.569
211.769
210.895
209.935
208.867
207.662
206.283
204.72
202.976
201.137
199.31
197.571
195.942
194.425
193.014
191.694
190.469
189.325
188.263
187.284
186.383
185.557
184.802
184.108
183.462
182.851
182.272
181.721
181.208
180.732
180.304
179.903
179.52
179.146
178.786
178.439
178.107
177.793
177.496
177.214
176.943
176.682
176.43
176.191
175.961
175.742
175.532
175.332
175.139
174.957
174.782
174.614
174.45
174.29
174.137
173.995
173.864
173.741
173.62
173.498
173.371
173.236
173.096
172.959
172.842
172.759
172.715
172.703
172.717
172.759
172.827
172.904
172.965
172.998
172.94
249.452
219
220.847
222.394
222.845
223.039
222.989
222.906
222.788
222.656
222.515
222.385
222.274
222.184
222.112
222.053
221.999
221.943
221.881
221.809
221.724
221.623
221.506
221.371
221.219
221.05
220.863
220.658
220.436
220.196
219.939
219.664
219.372
219.061
218.73
218.378
218.003
217.604
217.179
216.725
216.241
215.724
215.17
214.574
213.933
213.24
212.489
211.671
210.777
209.79
208.691
207.45
206.041
204.471
202.746
200.974
199.221
197.552
195.977
194.503
193.119
191.825
190.608
189.471
188.407
187.417
186.506
185.673
184.908
184.201
183.538
182.909
182.313
181.751
181.246
180.779
180.349
179.931
179.523
179.132
178.76
178.411
178.083
177.772
177.476
177.191
176.917
176.655
176.406
176.173
175.951
175.74
175.535
175.338
175.147
174.965
174.789
174.62
174.458
174.304
174.159
174.02
173.885
173.756
173.631
173.506
173.378
173.243
173.104
172.968
172.852
172.771
172.73
172.721
172.738
172.783
172.856
172.938
173.002
173.035
172.976
249.494
218.98
220.825
222.376
222.829
223.025
222.977
222.896
222.781
222.651
222.51
222.381
222.269
222.18
222.108
222.049
221.995
221.94
221.878
221.805
221.72
221.62
221.502
221.367
221.215
221.045
220.857
220.652
220.43
220.189
219.931
219.655
219.362
219.05
218.718
218.364
217.988
217.586
217.158
216.702
216.214
215.691
215.131
214.529
213.879
213.175
212.411
211.578
210.664
209.654
208.527
207.257
205.83
204.264
202.575
200.867
199.189
197.581
196.066
194.632
193.277
191.992
190.781
189.638
188.564
187.562
186.632
185.775
184.986
184.256
183.575
182.938
182.35
181.803
181.297
180.81
180.35
179.913
179.508
179.13
178.779
178.447
178.126
177.818
177.517
177.23
176.955
176.696
176.449
176.214
175.987
175.768
175.554
175.351
175.157
174.973
174.795
174.624
174.457
174.298
174.143
173.994
173.853
173.722
173.597
173.475
173.349
173.215
173.076
172.94
172.821
172.737
172.694
172.683
172.698
172.742
172.815
172.899
172.964
172.998
172.938
249.537
218.962
220.805
222.358
222.813
223.011
222.964
222.886
222.774
222.645
222.505
222.376
222.265
222.175
222.104
222.045
221.991
221.936
221.874
221.802
221.716
221.616
221.498
221.363
221.21
221.04
220.852
220.646
220.423
220.182
219.923
219.647
219.352
219.039
218.706
218.351
217.973
217.569
217.139
216.679
216.187
215.66
215.094
214.485
213.827
213.114
212.338
211.49
210.558
209.527
208.376
207.087
205.656
204.106
202.461
200.812
199.192
197.64
196.16
194.749
193.402
192.121
190.904
189.754
188.672
187.655
186.709
185.836
185.034
184.299
183.624
182.999
182.412
181.848
181.318
180.815
180.358
179.938
179.554
179.184
178.825
178.478
178.14
177.817
177.509
177.219
176.946
176.688
176.438
176.196
175.961
175.738
175.524
175.322
175.129
174.944
174.766
174.595
174.434
174.282
174.137
173.999
173.868
173.744
173.623
173.503
173.377
173.244
173.105
172.968
172.848
172.763
172.718
172.706
172.719
172.763
172.834
172.919
172.985
173.02
172.961
249.581
218.947
220.786
222.341
222.796
222.996
222.951
222.875
222.766
222.639
222.5
222.371
222.26
222.171
222.1
222.041
221.987
221.932
221.87
221.798
221.713
221.612
221.494
221.359
221.205
221.035
220.846
220.64
220.416
220.175
219.915
219.638
219.343
219.029
218.694
218.338
217.958
217.553
217.12
216.657
216.161
215.63
215.059
214.443
213.777
213.055
212.268
211.407
210.459
209.41
208.241
206.941
205.516
203.987
202.389
200.79
199.216
197.695
196.242
194.849
193.518
192.248
191.04
189.892
188.804
187.781
186.826
185.944
185.139
184.405
183.728
183.094
182.493
181.913
181.371
180.871
180.421
179.995
179.591
179.199
178.817
178.456
178.116
177.795
177.49
177.203
176.931
176.672
176.422
176.185
175.963
175.751
175.546
175.349
175.156
174.97
174.791
174.621
174.458
174.299
174.144
173.996
173.855
173.723
173.596
173.472
173.344
173.211
173.071
172.934
172.813
172.727
172.683
172.673
172.689
172.736
172.811
172.898
172.967
173.003
172.945
249.627
218.933
220.768
222.324
222.778
222.98
222.938
222.865
222.759
222.634
222.495
222.366
222.256
222.166
222.095
222.037
221.983
221.928
221.866
221.794
221.709
221.608
221.49
221.354
221.201
221.03
220.841
220.634
220.41
220.168
219.908
219.63
219.334
219.019
218.683
218.326
217.944
217.537
217.101
216.635
216.136
215.601
215.025
214.403
213.73
212.999
212.202
211.329
210.368
209.303
208.123
206.82
205.404
203.896
202.339
200.785
199.258
197.784
196.369
195.011
193.704
192.45
191.249
190.104
189.013
187.979
187.009
186.11
185.281
184.519
183.815
183.159
182.551
181.981
181.45
180.942
180.468
180.014
179.59
179.191
178.823
178.479
178.155
177.841
177.54
177.254
176.98
176.718
176.465
176.219
175.978
175.747
175.529
175.323
175.126
174.938
174.758
174.587
174.421
174.26
174.107
173.964
173.831
173.706
173.585
173.464
173.34
173.208
173.069
172.931
172.808
172.718
172.669
172.656
172.67
172.716
172.789
172.875
172.944
172.982
172.929
249.674
218.922
220.752
222.306
222.76
222.963
222.923
222.854
222.752
222.628
222.49
222.361
222.251
222.162
222.091
222.032
221.979
221.924
221.862
221.79
221.705
221.604
221.486
221.35
221.196
221.024
220.835
220.628
220.404
220.161
219.9
219.622
219.325
219.009
218.672
218.313
217.93
217.521
217.084
216.615
216.113
215.573
214.992
214.365
213.686
212.947
212.141
211.257
210.284
209.209
208.021
206.719
205.315
203.835
202.323
200.818
199.342
197.912
196.532
195.195
193.899
192.647
191.444
190.291
189.19
188.145
187.158
186.235
185.381
184.594
183.869
183.202
182.586
182.009
181.473
180.959
180.478
180.026
179.619
179.239
178.878
178.526
178.182
177.854
177.543
177.249
176.97
176.704
176.448
176.203
175.962
175.737
175.526
175.323
175.128
174.941
174.764
174.595
174.432
174.277
174.129
173.987
173.851
173.72
173.594
173.47
173.343
173.21
173.07
172.933
172.81
172.721
172.674
172.664
172.679
172.726
172.802
172.89
172.959
172.996
172.937
249.724
218.913
220.737
222.289
222.741
222.946
222.908
222.843
222.744
222.622
222.484
222.357
222.247
222.158
222.087
222.028
221.975
221.92
221.858
221.786
221.701
221.6
221.482
221.346
221.191
221.019
220.83
220.622
220.397
220.154
219.893
219.613
219.316
218.999
218.661
218.302
217.917
217.506
217.067
216.596
216.09
215.547
214.962
214.33
213.644
212.898
212.084
211.191
210.209
209.126
207.935
206.638
205.254
203.808
202.339
200.879
199.442
198.037
196.67
195.341
194.05
192.801
191.596
190.44
189.333
188.277
187.278
186.343
185.477
184.684
183.961
183.297
182.675
182.079
181.52
180.998
180.526
180.085
179.679
179.284
178.896
178.518
178.165
177.838
177.533
177.241
176.959
176.688
176.43
176.188
175.962
175.745
175.533
175.328
175.131
174.942
174.76
174.586
174.417
174.256
174.099
173.95
173.807
173.674
173.547
173.423
173.297
173.165
173.025
172.887
172.762
172.67
172.621
172.609
172.623
172.67
172.747
172.838
172.909
172.945
172.886
249.777
218.906
220.724
222.271
222.721
222.927
222.893
222.832
222.737
222.616
222.479
222.352
222.242
222.153
222.082
222.024
221.971
221.916
221.854
221.782
221.697
221.596
221.477
221.341
221.187
221.014
220.824
220.616
220.391
220.147
219.885
219.606
219.307
218.99
218.651
218.29
217.905
217.492
217.051
216.577
216.069
215.522
214.933
214.296
213.605
212.853
212.031
211.131
210.142
209.054
207.865
206.581
205.22
203.807
202.372
200.945
199.533
198.148
196.804
195.499
194.229
192.996
191.803
190.651
189.543
188.482
187.475
186.529
185.651
184.842
184.1
183.416
182.783
182.186
181.627
181.096
180.608
180.143
179.706
179.287
178.891
178.528
178.202
177.89
177.583
177.286
176.999
176.727
176.466
176.214
175.965
175.73
175.51
175.303
175.105
174.917
174.736
174.564
174.4
174.244
174.095
173.953
173.817
173.688
173.565
173.444
173.319
173.187
173.047
172.907
172.78
172.687
172.636
172.622
172.635
172.682
172.76
172.853
172.925
172.963
172.902
249.833
218.901
220.712
222.253
222.701
222.907
222.877
222.821
222.729
222.61
222.474
222.347
222.237
222.149
222.078
222.02
221.967
221.912
221.85
221.778
221.693
221.592
221.473
221.337
221.182
221.009
220.819
220.61
220.384
220.14
219.878
219.598
219.299
218.98
218.641
218.279
217.893
217.479
217.035
216.56
216.049
215.499
214.906
214.265
213.569
212.812
211.984
211.078
210.084
208.996
207.812
206.543
205.202
203.816
202.415
201.023
199.647
198.303
196.997
195.721
194.468
193.243
192.051
190.897
189.784
188.714
187.693
186.729
185.825
184.987
184.212
183.499
182.843
182.236
181.675
181.141
180.642
180.164
179.718
179.306
178.936
178.584
178.243
177.907
177.578
177.268
176.98
176.711
176.456
176.214
175.981
175.756
175.537
175.329
175.131
174.941
174.759
174.584
174.416
174.254
174.096
173.945
173.802
173.666
173.538
173.414
173.287
173.154
173.014
172.873
172.746
172.652
172.6
172.586
172.601
172.649
172.729
172.824
172.899
172.939
172.882
249.892
218.898
220.702
222.234
222.679
222.886
222.86
222.809
222.721
222.605
222.469
222.342
222.233
222.144
222.074
222.016
221.962
221.908
221.846
221.774
221.689
221.587
221.469
221.332
221.177
221.004
220.813
220.604
220.378
220.134
219.871
219.59
219.291
218.972
218.632
218.269
217.881
217.466
217.021
216.543
216.03
215.478
214.881
214.236
213.536
212.774
211.942
211.032
210.036
208.949
207.774
206.519
205.202
203.847
202.483
201.13
199.797
198.484
197.193
195.921
194.67
193.444
192.25
191.091
189.969
188.89
187.857
186.876
185.954
185.096
184.305
183.579
182.913
182.293
181.717
181.172
180.668
180.193
179.764
179.36
178.977
178.601
178.232
177.886
177.567
177.27
176.989
176.719
176.455
176.2
175.955
175.724
175.504
175.295
175.094
174.902
174.718
174.542
174.373
174.211
174.056
173.91
173.772
173.643
173.52
173.399
173.275
173.143
173.003
172.861
172.731
172.635
172.58
172.565
172.578
172.626
172.706
172.802
172.878
172.921
172.867
249.957
218.898
220.693
222.215
222.656
222.864
222.843
222.798
222.714
222.599
222.464
222.337
222.228
222.14
222.07
222.012
221.958
221.903
221.842
221.77
221.684
221.583
221.465
221.328
221.172
220.999
220.807
220.598
220.372
220.127
219.864
219.583
219.283
218.963
218.622
218.259
217.87
217.454
217.007
216.528
216.013
215.458
214.859
214.211
213.507
212.741
211.906
210.993
209.997
208.915
207.75
206.511
205.22
203.901
202.572
201.25
199.939
198.634
197.35
196.09
194.852
193.637
192.449
191.292
190.169
189.084
188.044
187.054
186.123
185.255
184.457
183.725
183.053
182.427
181.841
181.284
180.768
180.276
179.823
179.391
178.981
178.596
178.247
177.925
177.62
177.323
177.032
176.753
176.485
176.226
175.974
175.734
175.511
175.3
175.1
174.908
174.727
174.554
174.389
174.23
174.076
173.929
173.788
173.655
173.528
173.405
173.28
173.147
173.006
172.864
172.734
172.638
172.585
172.571
172.585
172.634
172.715
172.813
172.889
172.931
172.875
250.027
218.906
220.686
222.195
222.631
222.841
222.825
222.786
222.706
222.592
222.459
222.333
222.224
222.136
222.065
222.007
221.954
221.899
221.838
221.766
221.68
221.579
221.46
221.323
221.167
220.994
220.802
220.593
220.366
220.121
219.857
219.576
219.275
218.955
218.614
218.249
217.86
217.442
216.995
216.514
215.997
215.44
214.838
214.187
213.481
212.713
211.875
210.962
209.968
208.891
207.737
206.52
205.258
203.966
202.662
201.362
200.071
198.792
197.542
196.313
195.098
193.898
192.719
191.566
190.442
189.353
188.304
187.303
186.355
185.465
184.638
183.874
183.174
182.529
181.932
181.368
180.844
180.342
179.871
179.421
179.018
178.643
178.296
177.961
177.63
177.312
177.009
176.722
176.453
176.198
175.958
175.729
175.508
175.297
175.094
174.9
174.715
174.537
174.364
174.197
174.035
173.881
173.736
173.6
173.473
173.349
173.225
173.093
172.952
172.807
172.674
172.574
172.518
172.502
172.517
172.567
172.651
172.754
172.834
172.877
172.821
250.102
218.916
220.68
222.174
222.604
222.816
222.808
222.775
222.698
222.586
222.453
222.328
222.219
222.131
222.061
222.003
221.95
221.895
221.834
221.762
221.676
221.575
221.456
221.318
221.163
220.988
220.796
220.587
220.359
220.114
219.851
219.569
219.268
218.947
218.605
218.24
217.85
217.432
216.983
216.501
215.982
215.424
214.82
214.167
213.459
212.688
211.85
210.937
209.946
208.877
207.74
206.544
205.304
204.034
202.758
201.489
200.236
198.998
197.773
196.558
195.349
194.152
192.972
191.815
190.686
189.589
188.529
187.514
186.547
185.635
184.78
183.989
183.259
182.592
181.979
181.406
180.874
180.37
179.91
179.48
179.076
178.684
178.306
177.951
177.622
177.315
177.025
176.745
176.474
176.215
175.966
175.729
175.501
175.284
175.078
174.883
174.697
174.519
174.348
174.184
174.026
173.878
173.738
173.606
173.48
173.358
173.234
173.101
172.959
172.812
172.676
172.571
172.51
172.493
172.506
172.556
172.64
172.744
172.825
172.869
172.812
250.183
218.93
220.676
222.152
222.575
222.79
222.79
222.763
222.69
222.58
222.448
222.323
222.215
222.127
222.057
221.999
221.946
221.891
221.83
221.757
221.672
221.57
221.451
221.314
221.158
220.983
220.791
220.581
220.353
220.108
219.844
219.562
219.261
218.94
218.597
218.232
217.841
217.422
216.972
216.489
215.969
215.409
214.804
214.149
213.44
212.668
211.83
210.919
209.934
208.878
207.755
206.576
205.356
204.118
202.879
201.644
200.421
199.197
197.973
196.76
195.554
194.36
193.183
192.026
190.894
189.791
188.723
187.698
186.719
185.794
184.927
184.129
183.397
182.726
182.105
181.522
180.98
180.463
179.98
179.52
179.09
178.686
178.318
177.983
177.673
177.367
177.061
176.769
176.493
176.234
175.987
175.75
175.522
175.305
175.098
174.901
174.711
174.528
174.35
174.179
174.014
173.858
173.711
173.571
173.44
173.313
173.186
173.052
172.909
172.762
172.624
172.515
172.452
172.434
172.446
172.494
172.574
172.676
172.755
172.797
172.738
250.27
218.948
220.674
222.129
222.544
222.762
222.772
222.751
222.682
222.574
222.443
222.318
222.211
222.123
222.053
221.995
221.942
221.887
221.825
221.753
221.667
221.566
221.447
221.309
221.153
220.978
220.786
220.575
220.347
220.102
219.838
219.555
219.254
218.932
218.59
218.224
217.832
217.413
216.963
216.479
215.958
215.397
214.79
214.135
213.424
212.653
211.816
210.908
209.931
208.886
207.777
206.617
205.426
204.222
203.01
201.795
200.583
199.367
198.161
196.972
195.79
194.615
193.45
192.301
191.171
190.066
188.993
187.959
186.971
186.033
185.15
184.33
183.574
182.881
182.242
181.645
181.093
180.567
180.074
179.588
179.148
178.746
178.383
178.036
177.694
177.361
177.041
176.745
176.472
176.213
175.962
175.72
175.487
175.268
175.059
174.859
174.666
174.481
174.302
174.133
173.972
173.822
173.677
173.54
173.409
173.283
173.157
173.024
172.881
172.733
172.592
172.481
172.417
172.398
172.409
172.455
172.535
172.64
172.724
172.773
172.721
250.366
218.97
220.673
222.106
222.511
222.733
222.754
222.74
222.674
222.567
222.437
222.314
222.206
222.119
222.049
221.991
221.938
221.883
221.821
221.749
221.663
221.561
221.442
221.304
221.148
220.973
220.78
220.57
220.342
220.096
219.832
219.549
219.247
218.926
218.583
218.216
217.824
217.405
216.954
216.469
215.948
215.386
214.779
214.123
213.412
212.642
211.807
210.905
209.937
208.902
207.809
206.673
205.511
204.329
203.133
201.938
200.749
199.572
198.404
197.239
196.073
194.905
193.745
192.597
191.466
190.357
189.277
188.232
187.23
186.272
185.366
184.511
183.718
182.987
182.319
181.704
181.139
180.605
180.117
179.66
179.233
178.82
178.424
178.046
177.691
177.367
177.073
176.793
176.519
176.253
175.994
175.746
175.51
175.289
175.079
174.878
174.686
174.501
174.323
174.154
173.992
173.838
173.688
173.546
173.412
173.284
173.156
173.022
172.879
172.73
172.588
172.476
172.409
172.387
172.396
172.438
172.515
172.616
172.696
172.741
172.681
250.47
218.997
220.674
222.082
222.477
222.704
222.736
222.729
222.666
222.561
222.432
222.309
222.202
222.115
222.045
221.987
221.934
221.879
221.817
221.745
221.659
221.557
221.438
221.3
221.143
220.968
220.775
220.564
220.336
220.09
219.826
219.543
219.241
218.919
218.576
218.209
217.817
217.397
216.946
216.461
215.939
215.377
214.77
214.114
213.404
212.635
211.804
210.909
209.948
208.926
207.852
206.74
205.598
204.434
203.267
202.105
200.952
199.804
198.643
197.479
196.313
195.147
193.987
192.839
191.705
190.591
189.503
188.449
187.433
186.462
185.537
184.666
183.857
183.114
182.438
181.815
181.24
180.692
180.177
179.691
179.252
178.834
178.437
178.069
177.742
177.426
177.114
176.811
176.515
176.235
175.975
175.73
175.499
175.278
175.066
174.863
174.667
174.476
174.292
174.117
173.949
173.788
173.633
173.49
173.356
173.227
173.099
172.965
172.821
172.671
172.528
172.414
172.344
172.32
172.329
172.374
172.457
172.563
172.649
172.698
172.644
250.585
219.03
220.679
222.058
222.443
222.674
222.718
222.718
222.657
222.554
222.427
222.304
222.198
222.111
222.041
221.983
221.93
221.875
221.813
221.74
221.654
221.553
221.433
221.295
221.138
220.963
220.77
220.559
220.33
220.084
219.82
219.537
219.235
218.913
218.57
218.203
217.811
217.391
216.94
216.455
215.933
215.37
214.764
214.108
213.399
212.633
211.807
210.918
209.967
208.959
207.905
206.811
205.689
204.556
203.424
202.288
201.15
200.004
198.846
197.693
196.544
195.393
194.246
193.106
191.976
190.861
189.769
188.707
187.682
186.701
185.765
184.886
184.063
183.31
182.618
181.977
181.385
180.825
180.303
179.796
179.328
178.892
178.499
178.129
177.776
177.433
177.101
176.791
176.504
176.233
175.979
175.736
175.502
175.275
175.058
174.853
174.655
174.466
174.286
174.116
173.952
173.792
173.641
173.501
173.369
173.242
173.114
172.98
172.837
172.687
172.542
172.426
172.355
172.332
172.343
172.389
172.471
172.577
172.663
172.71
172.649
250.711
219.071
220.688
222.035
222.41
222.645
222.7
222.707
222.649
222.548
222.421
222.299
222.194
222.107
222.038
221.98
221.926
221.871
221.809
221.736
221.65
221.548
221.428
221.29
221.133
220.958
220.764
220.553
220.325
220.078
219.814
219.532
219.23
218.908
218.564
218.198
217.805
217.385
216.934
216.449
215.928
215.366
214.759
214.105
213.399
212.637
211.815
210.934
209.994
209.001
207.963
206.889
205.795
204.694
203.58
202.455
201.329
200.202
199.079
197.958
196.833
195.699
194.563
193.43
192.304
191.189
190.094
189.025
187.991
186.996
186.044
185.14
184.283
183.489
182.755
182.079
181.459
180.884
180.365
179.877
179.425
178.986
178.572
178.173
177.791
177.444
177.134
176.836
176.548
176.271
176.008
175.759
175.518
175.287
175.069
174.86
174.658
174.464
174.28
174.104
173.932
173.765
173.609
173.465
173.329
173.199
173.07
172.936
172.794
172.644
172.498
172.378
172.304
172.279
172.286
172.328
172.406
172.513
172.602
172.651
172.592
250.851
219.119
220.7
222.012
222.379
222.618
222.683
222.696
222.64
222.541
222.416
222.295
222.19
222.103
222.034
221.976
221.922
221.867
221.805
221.732
221.646
221.543
221.424
221.285
221.128
220.953
220.759
220.548
220.319
220.073
219.809
219.526
219.225
218.903
218.559
218.193
217.801
217.381
216.93
216.445
215.924
215.362
214.758
214.106
213.402
212.643
211.828
210.955
210.027
209.049
208.028
206.978
205.912
204.828
203.727
202.626
201.53
200.44
199.346
198.232
197.11
195.978
194.844
193.712
192.585
191.468
190.368
189.291
188.246
187.237
186.27
185.341
184.466
183.644
182.882
182.191
181.561
180.973
180.429
179.913
179.447
179.006
178.593
178.203
177.85
177.508
177.174
176.848
176.538
176.252
175.987
175.735
175.492
175.261
175.039
174.825
174.618
174.424
174.241
174.065
173.894
173.731
173.578
173.435
173.299
173.167
173.037
172.903
172.76
172.608
172.46
172.338
172.261
172.234
172.241
172.282
172.362
172.471
172.561
172.613
172.553
251.006
219.176
220.717
221.99
222.349
222.591
222.665
222.684
222.631
222.534
222.41
222.29
222.186
222.1
222.03
221.972
221.919
221.863
221.801
221.728
221.641
221.539
221.419
221.281
221.124
220.948
220.754
220.543
220.314
220.068
219.804
219.521
219.22
218.898
218.555
218.188
217.797
217.377
216.927
216.443
215.922
215.362
214.759
214.109
213.408
212.655
211.846
210.982
210.066
209.103
208.103
207.077
206.028
204.96
203.889
202.823
201.753
200.675
199.579
198.465
197.349
196.227
195.103
193.978
192.855
191.739
190.635
189.551
188.496
187.477
186.497
185.561
184.674
183.842
183.084
182.388
181.743
181.139
180.581
180.04
179.535
179.062
178.64
178.248
177.88
177.521
177.167
176.843
176.559
176.293
176.031
175.773
175.525
175.29
175.064
174.847
174.64
174.444
174.258
174.077
173.901
173.735
173.577
173.428
173.285
173.149
173.015
172.878
172.732
172.578
172.426
172.298
172.216
172.186
172.19
172.228
172.307
172.414
172.504
172.554
172.489
251.179
219.243
220.736
221.968
222.32
222.565
222.648
222.673
222.622
222.527
222.405
222.286
222.182
222.096
222.027
221.969
221.915
221.859
221.797
221.723
221.637
221.534
221.414
221.276
221.119
220.943
220.749
220.538
220.309
220.063
219.799
219.517
219.215
218.894
218.551
218.185
217.794
217.374
216.925
216.442
215.923
215.364
214.762
214.115
213.418
212.67
211.868
211.014
210.111
209.165
208.185
207.177
206.147
205.109
204.071
203.02
201.955
200.883
199.802
198.718
197.63
196.532
195.424
194.311
193.197
192.085
190.981
189.894
188.833
187.804
186.811
185.864
184.955
184.096
183.299
182.559
181.876
181.243
180.671
180.137
179.652
179.181
178.743
178.317
177.902
177.528
177.203
176.903
176.611
176.321
176.031
175.755
175.494
175.252
175.022
174.804
174.597
174.399
174.206
174.019
173.841
173.674
173.514
173.362
173.216
173.078
172.945
172.808
172.664
172.51
172.357
172.228
172.146
172.117
172.124
172.168
172.253
172.368
172.465
172.52
172.463
251.369
219.32
220.758
221.946
222.292
222.54
222.63
222.661
222.613
222.52
222.399
222.281
222.178
222.093
222.023
221.965
221.911
221.855
221.792
221.719
221.632
221.529
221.409
221.271
221.114
220.938
220.744
220.533
220.304
220.058
219.794
219.512
219.211
218.89
218.548
218.182
217.791
217.373
216.924
216.442
215.925
215.367
214.768
214.124
213.432
212.689
211.896
211.052
210.162
209.233
208.271
207.282
206.278
205.269
204.243
203.2
202.156
201.113
200.071
199.013
197.934
196.842
195.739
194.63
193.519
192.408
191.303
190.212
189.142
188.101
187.095
186.127
185.199
184.324
183.483
182.703
181.994
181.345
180.752
180.196
179.696
179.224
178.79
178.372
177.977
177.604
177.26
176.93
176.603
176.295
176.005
175.734
175.483
175.247
175.02
174.803
174.596
174.397
174.206
174.023
173.849
173.683
173.523
173.369
173.223
173.087
172.955
172.819
172.674
172.518
172.363
172.231
172.147
172.114
172.118
172.158
172.239
172.354
172.448
172.501
172.438
251.579
219.406
220.782
221.923
222.265
222.515
222.613
222.65
222.604
222.513
222.394
222.277
222.175
222.09
222.02
221.962
221.908
221.852
221.788
221.715
221.627
221.525
221.404
221.266
221.109
220.933
220.739
220.528
220.299
220.053
219.79
219.508
219.207
218.887
218.545
218.18
217.79
217.372
216.925
216.444
215.928
215.373
214.777
214.136
213.449
212.713
211.927
211.095
210.219
209.307
208.362
207.396
206.418
205.423
204.41
203.397
202.385
201.366
200.334
199.273
198.193
197.106
196.01
194.907
193.8
192.69
191.584
190.488
189.41
188.358
187.34
186.357
185.418
184.524
183.681
182.914
182.205
181.545
180.935
180.357
179.82
179.308
178.845
178.42
178.023
177.641
177.274
176.93
176.619
176.33
176.052
175.784
175.524
175.274
175.034
174.806
174.59
174.385
174.188
174
173.82
173.647
173.48
173.322
173.176
173.038
172.905
172.768
172.619
172.459
172.299
172.162
172.071
172.034
172.036
172.075
172.161
172.283
172.384
172.441
172.384
251.806
219.501
220.807
221.899
222.238
222.491
222.596
222.638
222.594
222.506
222.389
222.273
222.171
222.087
222.017
221.959
221.904
221.848
221.784
221.71
221.623
221.52
221.399
221.261
221.104
220.928
220.734
220.523
220.294
220.049
219.786
219.504
219.204
218.884
218.543
218.179
217.789
217.373
216.927
216.448
215.934
215.381
214.788
214.151
213.469
212.74
211.964
211.143
210.282
209.385
208.461
207.517
206.556
205.576
204.594
203.613
202.614
201.598
200.566
199.52
198.466
197.402
196.325
195.238
194.142
193.04
191.937
190.84
189.758
188.7
187.67
186.681
185.73
184.805
183.948
183.149
182.399
181.703
181.065
180.475
179.947
179.436
178.953
178.484
178.056
177.667
177.317
176.989
176.675
176.367
176.065
175.777
175.5
175.241
175.002
174.779
174.566
174.362
174.166
173.98
173.8
173.627
173.462
173.307
173.163
173.027
172.894
172.756
172.607
172.447
172.288
172.149
172.058
172.024
172.029
172.074
172.163
172.287
172.388
172.445
172.383
252.05
219.604
220.833
221.875
222.211
222.468
222.579
222.627
222.585
222.499
222.384
222.269
222.168
222.084
222.015
221.956
221.901
221.844
221.78
221.706
221.618
221.515
221.394
221.256
221.099
220.923
220.73
220.518
220.29
220.044
219.782
219.501
219.201
218.882
218.541
218.178
217.79
217.375
216.93
216.453
215.941
215.391
214.801
214.169
213.492
212.771
212.004
211.196
210.349
209.47
208.566
207.64
206.696
205.744
204.791
203.817
202.823
201.824
200.822
199.814
198.784
197.732
196.666
195.587
194.497
193.4
192.299
191.203
190.117
189.051
188.01
187.003
186.033
185.106
184.211
183.349
182.559
181.833
181.174
180.562
180.009
179.49
179.02
178.575
178.169
177.779
177.403
177.039
176.681
176.344
176.039
175.757
175.498
175.261
175.038
174.818
174.599
174.387
174.183
173.988
173.801
173.624
173.455
173.297
173.149
173.011
172.874
172.734
172.584
172.422
172.257
172.112
172.014
171.973
171.972
172.008
172.089
172.208
172.306
172.361
172.298
252.306
219.71
220.856
221.849
222.184
222.445
222.562
222.615
222.576
222.492
222.378
222.265
222.165
222.081
222.012
221.953
221.898
221.841
221.776
221.701
221.613
221.51
221.389
221.251
221.094
220.919
220.725
220.514
220.286
220.041
219.778
219.498
219.199
218.88
218.54
218.178
217.791
217.377
216.934
216.459
215.949
215.403
214.817
214.189
213.519
212.805
212.049
211.253
210.422
209.561
208.674
207.766
206.846
205.92
204.976
204.012
203.048
202.081