/*--------------------------------*- C++ -*----------------------------------*\
| =========                 |                                                 |
| \\      /  F ield         | OpenFOAM: The Open Source CFD Toolbox           |
|  \\    /   O peration     | Version:  2412                                  |
|   \\  /    A nd           | Website:  www.openfoam.com                      |
|    \\/     M anipulation  |                                                 |
\*---------------------------------------------------------------------------*/
FoamFile
{
    version     2.0;
    format      ascii;
    arch        "LSB;label=32;scalar=64";
    class       volVectorField;
    location    "0.011";
    object      U;
}
// * * * * * * * * * * * * * * * * * * * * * * * * * * * * * * * * * * * * * //

dimensions      [0 1 -1 0 0 0 0];

internalField   nonuniform List<vector> 
9857
(
(210 -2.0254e-12 0)
(210 1.09811e-12 0)
(210 -1.30187e-12 0)
(210 9.76757e-13 0)
(210 2.99635e-12 0)
(210 1.3954e-11 0)
(210 4.17931e-12 0)
(210 -8.58673e-13 0)
(210 -5.85939e-14 0)
(210 -1.45347e-12 0)
(210 -8.28426e-12 0)
(210 -9.85906e-13 0)
(210 2.25824e-12 0)
(210 -8.48736e-12 0)
(210 1.64101e-12 0)
(210 6.7133e-12 0)
(210 5.74856e-12 0)
(210 2.88356e-12 0)
(210 3.00688e-12 0)
(210 3.84113e-12 0)
(210 -1.97228e-13 0)
(210 -1.38458e-12 0)
(210 -7.81301e-13 0)
(210 3.56124e-13 0)
(210 3.12205e-12 0)
(210 -5.27379e-12 0)
(210 -1.60728e-12 0)
(210 -2.71669e-12 0)
(210 -2.91282e-12 0)
(210 5.77949e-12 0)
(210 1.43908e-11 0)
(210 1.01254e-11 0)
(210 9.17235e-12 0)
(210 9.11372e-13 0)
(210 -2.00147e-12 0)
(210 -7.03268e-12 0)
(210 -1.73467e-12 0)
(210 4.28599e-12 0)
(210 -5.23539e-12 0)
(210 -3.11333e-12 0)
(210 2.73582e-12 0)
(210 8.28762e-12 0)
(210 2.37172e-12 0)
(210 3.12309e-12 0)
(210 1.86001e-12 0)
(210 6.12225e-13 0)
(210 -6.02158e-13 0)
(210 -2.45838e-12 0)
(210 -3.30868e-12 0)
(210 1.40492e-12 0)
(210 -2.41656e-12 0)
(210 -5.67835e-12 0)
(210 -3.35362e-12 0)
(210 -1.64973e-12 0)
(210 -5.10112e-13 0)
(210 7.62326e-12 0)
(210 7.23504e-12 0)
(210 3.10232e-12 0)
(210 2.5363e-12 0)
(210 1.33647e-12 0)
(210 -4.13582e-12 0)
(210 -5.29301e-12 0)
(210 -3.7024e-13 0)
(210 -3.50865e-12 0)
(210 -4.73783e-12 0)
(210 -9.88073e-13 0)
(210 6.02928e-12 0)
(210 6.25531e-12 0)
(210 3.24358e-12 0)
(210 -5.12056e-12 0)
(210 2.0834e-12 0)
(210 -9.9476e-13 0)
(210 1.13194e-12 0)
(210 -1.12876e-12 0)
(210 5.07625e-12 0)
(210 5.42161e-12 0)
(210 -5.08288e-12 0)
(210 -4.80298e-12 0)
(210 -1.19687e-12 0)
(210 -6.05962e-12 0)
(210 2.28267e-12 0)
(210 8.68997e-12 0)
(210 6.26638e-12 0)
(210 4.80051e-12 0)
(210 4.17029e-12 0)
(210 -9.69714e-13 0)
(210 -9.94678e-12 0)
(210 -5.64482e-12 0)
(210 -9.19691e-12 0)
(210 -9.99767e-12 0)
(210 -3.96883e-12 0)
(210 -5.6086e-13 0)
(210 9.65135e-13 0)
(210 2.2804e-12 0)
(210 -4.57254e-12 0)
(210 1.25884e-12 0)
(210 2.14479e-12 0)
(210 1.97718e-12 0)
(210 2.83896e-12 0)
(210 2.22284e-12 0)
(210 6.8505e-12 0)
(210 7.1199e-13 0)
(210 -3.53152e-12 0)
(210 -3.35799e-12 0)
(210 -7.07402e-12 0)
(210 -9.61725e-12 0)
(210 1.62899e-12 0)
(210 7.0028e-12 0)
(210 4.04263e-12 0)
(210 3.06681e-12 0)
(210 1.40748e-12 0)
(210 -3.54583e-12 0)
(210 -4.11292e-12 0)
(210 -2.99581e-12 0)
(210 -6.16746e-12 0)
(210 9.37807e-13 0)
(210 6.18268e-13 0)
(210 2.81414e-12 0)
(210 3.69385e-12 0)
(210 -2.86814e-12 0)
(210 -5.12449e-12 0)
(210 -2.24322e-13 0)
(210 -2.05144e-12 0)
(210 8.55168e-14 0)
(210 -2.01939e-12 0)
(210 6.36163e-12 0)
(210 3.93117e-12 0)
(210 1.24556e-12 0)
(210 -3.84929e-12 0)
(210 -6.30001e-12 0)
(210 -1.29487e-11 0)
(210 -6.84857e-12 0)
(210 1.82714e-12 0)
(210 3.48061e-13 0)
(210 5.54967e-14 0)
(210 -3.87168e-12 0)
(210 -1.37059e-12 0)
(210 -3.13093e-12 0)
(210 1.1372e-12 0)
(210 -4.86031e-12 0)
(210 -1.13348e-12 0)
(210 2.34203e-12 0)
(210 -9.10204e-14 0)
(210 6.86332e-12 0)
(210 -2.02876e-12 0)
(210 -2.3875e-12 0)
(210 -2.86262e-13 0)
(210 -7.94439e-13 0)
(210 -2.7747e-12 0)
(210 -3.91481e-12 0)
(210 1.10667e-12 0)
(210 8.40796e-12 0)
(210 1.15449e-11 0)
(210 -9.79382e-13 0)
(210 -2.64216e-12 0)
(210 -2.53925e-12 0)
(210 -6.4964e-12 0)
(210 -5.50794e-12 0)
(210 6.17441e-13 0)
(210 1.91621e-12 0)
(210 -1.24761e-12 0)
(210 -1.61955e-12 0)
(210 -7.59336e-12 0)
(210 -5.36092e-12 0)
(210 -7.54621e-12 0)
(210 -8.25001e-12 0)
(210 -2.43395e-12 0)
(210 2.23088e-13 0)
(210 7.77623e-12 0)
(210 2.30847e-12 0)
(210 -6.39053e-13 0)
(210 2.22746e-12 0)
(210 -1.39526e-12 0)
(210 -6.18433e-13 0)
(210 6.29384e-13 0)
(210 -2.76576e-12 0)
(210 1.0427e-12 0)
(210 9.45012e-12 0)
(210 1.09053e-11 0)
(210 -9.72193e-13 0)
(210 2.81078e-12 0)
(210 5.47647e-12 0)
(210 1.03093e-11 0)
(210 -3.59043e-12 0)
(210 -1.66828e-12 0)
(210 1.02177e-12 0)
(210 9.62257e-13 0)
(210 1.92265e-12 0)
(210 -1.30885e-12 0)
(210 -2.87006e-12 0)
(210 -3.78944e-12 0)
(210 -7.89042e-12 0)
(210 -7.23279e-12 0)
(210 -2.55262e-12 0)
(210 4.49678e-12 0)
(210 2.56943e-12 0)
(210 -1.5578e-12 0)
(210 6.93662e-13 0)
(210 3.97583e-12 0)
(210 3.51413e-12 0)
(210 2.79414e-12 0)
(210 2.17494e-12 0)
(210 -3.82014e-12 0)
(210 3.58382e-12 0)
(210 9.03921e-12 0)
(210 -2.79471e-12 0)
(210 -2.43212e-12 0)
(210 -1.0739e-13 0)
(210 8.01069e-12 0)
(210 5.73956e-12 0)
(210 6.15036e-13 0)
(210 4.47266e-12 0)
(210 2.79177e-12 0)
(210 -6.73005e-13 0)
(210 6.4928e-13 0)
(210 5.52847e-12 0)
(210 1.09172e-12 0)
(210 -3.92897e-12 0)
(210 -3.6371e-12 0)
(210 -3.33912e-12 0)
(210 3.69195e-13 0)
(210 4.10097e-13 0)
(210 -8.96868e-13 0)
(210 -4.0783e-12 0)
(210 1.52689e-12 0)
(210 -2.05314e-13 0)
(210 -3.54911e-13 0)
(210 -3.0115e-15 0)
(210 -2.5431e-12 0)
(210 8.80236e-13 0)
(210 6.87566e-12 0)
(210 2.25936e-12 0)
(210 -5.69948e-13 0)
(210 -6.98109e-12 0)
(210 -1.15043e-11 0)
(210 1.48682e-12 0)
(210 7.09759e-12 0)
(210 4.56549e-12 0)
(210 3.8725e-12 0)
(210 4.25927e-12 0)
(210 -1.86205e-12 0)
(210 -4.02615e-12 0)
(210 7.65708e-12 0)
(210 9.80891e-12 0)
(210 -8.73707e-13 0)
(210 -4.75787e-12 0)
(210 -1.73517e-12 0)
(210 2.10348e-12 0)
(210 3.32732e-12 0)
(210 1.62642e-12 0)
(210 -4.33267e-12 0)
(210 -1.62752e-12 0)
(210 5.09487e-12 0)
(210 7.13617e-13 0)
(210 3.84594e-13 0)
(210 1.00922e-12 0)
(210 2.1163e-12 0)
(210 8.04719e-12 0)
(210 4.66894e-12 0)
(210 -1.3035e-12 0)
(210 -4.28647e-12 0)
(210 -9.33537e-12 0)
(210 -6.13541e-12 0)
(210 5.38752e-12 0)
(210 4.97264e-12 0)
(210 6.32257e-12 0)
(210 5.97531e-12 0)
(210 -1.28503e-12 0)
(210 -8.0284e-12 0)
(210 -7.48058e-12 0)
(210 6.90142e-12 0)
(210 1.55164e-12 0)
(210 -4.51967e-12 0)
(210 -9.6804e-12 0)
(210 -6.14757e-12 0)
(210 -2.49104e-12 0)
(210 3.6393e-12 0)
(210 -2.28557e-12 0)
(210 -1.13147e-12 0)
(210 3.89272e-12 0)
(210 6.38907e-12 0)
(210 3.3998e-12 0)
(210 -1.58486e-12 0)
(210 2.3608e-13 0)
(210 7.63119e-12 0)
(210 2.55817e-12 0)
(210 1.60976e-12 0)
(210 -2.63695e-12 0)
(210 -3.73115e-12 0)
(210 -7.76899e-13 0)
(210 -6.99306e-12 0)
(210 2.70294e-13 0)
(210 6.09757e-12 0)
(210 8.50053e-12 0)
(210 9.99042e-12 0)
(210 5.61282e-12 0)
(210 -6.18293e-12 0)
(210 -1.08416e-11 0)
(210 -3.88086e-13 0)
(210 1.89223e-12 0)
(210 8.3016e-13 0)
(210 -7.46282e-12 0)
(210 -9.01393e-12 0)
(210 -9.33199e-12 0)
(210 -2.83388e-12 0)
(210 3.83292e-14 0)
(210 -9.96733e-13 0)
(210 -1.19879e-12 0)
(210 6.53252e-12 0)
(210 1.54514e-12 0)
(210 -2.76399e-12 0)
(210 -4.41969e-12 0)
(210 2.42738e-12 0)
(210 3.22014e-12 0)
(210 -1.23512e-12 0)
(210 -2.78939e-13 0)
(210 -5.97353e-12 0)
(210 -3.77161e-12 0)
(210 -6.55289e-12 0)
(210 4.27643e-12 0)
(210 2.44617e-12 0)
(210 5.88595e-12 0)
(210 4.42278e-12 0)
(210 1.05883e-11 0)
(210 1.44895e-12 0)
(210 -8.32205e-12 0)
(210 -4.2363e-12 0)
(210 -1.38548e-12 0)
(210 -9.25068e-13 0)
(210 1.52045e-12 0)
(210 -1.02976e-12 0)
(210 8.89305e-15 0)
(210 -3.07601e-12 0)
(210 -9.44417e-13 0)
(210 -4.84782e-12 0)
(210 -4.08643e-12 0)
(210 4.02077e-12 0)
(210 4.19111e-12 0)
(210 -1.76348e-12 0)
(210 -2.81489e-12 0)
(210 2.73436e-12 0)
(210 4.84011e-12 0)
(210 -8.54082e-12 0)
(210 -1.91627e-09 0)
(210 -2.45347e-07 0)
(210 -3.28915e-05 0)
(209.985 -0.00322524 0)
(209.68 -0.0956061 0)
(207.698 -0.863132 0)
(203.282 -2.83904 0)
(199.288 -4.68255 0)
(197.54 -5.43562 0)
(197.14 -5.50442 0)
(197.346 -5.34563 0)
(197.985 -5.00468 0)
(198.545 -4.75966 0)
(198.963 -4.59291 0)
(199.32 -4.45684 0)
(199.624 -4.3459 0)
(199.878 -4.26925 0)
(200.083 -4.23326 0)
(200.236 -4.23475 0)
(200.338 -4.26669 0)
(200.392 -4.31864 0)
(200.392 -4.3867 0)
(200.34 -4.47658 0)
(200.237 -4.59257 0)
(200.076 -4.71955 0)
(199.877 -4.86757 0)
(199.642 -5.04623 0)
(199.41 -5.2478 0)
(199.051 -5.44758 0)
(198.176 -5.70725 0)
(195.826 -6.00891 0)
(192.009 -6.42303 0)
(210 -8.92893e-13 0)
(210 -4.32065e-12 0)
(210 -1.83798e-12 0)
(210 -6.92198e-12 0)
(210 -1.38404e-12 0)
(210 1.43012e-12 0)
(210 1.67818e-12 0)
(210 4.05236e-12 0)
(210 7.54443e-12 0)
(210 6.6975e-12 0)
(210 -9.18466e-13 0)
(210 -3.39981e-12 0)
(210 -8.04279e-13 0)
(210 -5.37901e-13 0)
(210 1.05271e-12 0)
(210 -1.45666e-12 0)
(210 -2.65819e-12 0)
(210 -2.19765e-12 0)
(210 -4.5214e-12 0)
(210 -6.80384e-12 0)
(210 -7.43128e-12 0)
(210 3.78183e-12 0)
(210 1.09319e-11 0)
(210 4.84648e-12 0)
(210 -3.93602e-12 0)
(210 2.58791e-12 0)
(210 4.98591e-12 0)
(210 -4.43053e-11 0)
(210 -6.29706e-09 0)
(210 -7.88212e-07 0)
(209.999 -0.000101925 0)
(209.969 -0.00748813 0)
(209.483 -0.169838 0)
(206.975 -1.21093 0)
(202.393 -3.35106 0)
(198.859 -5.00797 0)
(197.509 -5.57431 0)
(197.256 -5.63775 0)
(197.601 -5.41233 0)
(198.24 -5.03537 0)
(198.772 -4.79267 0)
(199.182 -4.64295 0)
(199.542 -4.52388 0)
(199.846 -4.42375 0)
(200.097 -4.35093 0)
(200.297 -4.31797 0)
(200.444 -4.32789 0)
(200.541 -4.36924 0)
(200.591 -4.43075 0)
(200.589 -4.50857 0)
(200.534 -4.60888 0)
(200.425 -4.73474 0)
(200.262 -4.86867 0)
(200.066 -5.03128 0)
(199.854 -5.22271 0)
(199.612 -5.42645 0)
(199.082 -5.67684 0)
(197.547 -5.94851 0)
(194.314 -6.33699 0)
(190.358 -6.80383 0)
(210 8.56402e-13 0)
(210 -1.76649e-12 0)
(210 -5.71961e-12 0)
(210 -4.86188e-12 0)
(210 -8.17084e-12 0)
(210 -2.16596e-12 0)
(210 2.81565e-12 0)
(210 1.62519e-12 0)
(210 1.80398e-13 0)
(210 6.83275e-12 0)
(210 4.6894e-12 0)
(210 -1.78747e-12 0)
(210 1.27051e-12 0)
(210 9.4996e-13 0)
(210 -1.68584e-13 0)
(210 3.8719e-13 0)
(210 -2.88953e-12 0)
(210 -3.95218e-13 0)
(210 -2.74658e-12 0)
(210 -5.48385e-12 0)
(210 -1.09356e-11 0)
(210 -3.45519e-12 0)
(210 3.72249e-12 0)
(210 2.50122e-12 0)
(210 -3.37235e-12 0)
(210 -8.03898e-13 0)
(210 2.66484e-12 0)
(210 -1.51738e-10 0)
(210 -1.95661e-08 0)
(210 -2.3763e-06 0)
(209.998 -0.000285903 0)
(209.941 -0.0161537 0)
(209.206 -0.283521 0)
(206.176 -1.62124 0)
(201.588 -3.84525 0)
(198.548 -5.29279 0)
(197.533 -5.68188 0)
(197.389 -5.74976 0)
(197.87 -5.46573 0)
(198.502 -5.08043 0)
(199.004 -4.83564 0)
(199.401 -4.68581 0)
(199.762 -4.57749 0)
(200.067 -4.49236 0)
(200.317 -4.42995 0)
(200.513 -4.40367 0)
(200.656 -4.42075 0)
(200.748 -4.46895 0)
(200.794 -4.53845 0)
(200.788 -4.62594 0)
(200.727 -4.73725 0)
(200.613 -4.87386 0)
(200.451 -5.01725 0)
(200.269 -5.19344 0)
(200.073 -5.39708 0)
(199.734 -5.59566 0)
(198.86 -5.89907 0)
(196.426 -6.23229 0)
(192.594 -6.70174 0)
(189.034 -7.17052 0)
(210 -1.29813e-12 0)
(210 3.21211e-12 0)
(210 -8.81834e-13 0)
(210 -3.92405e-12 0)
(210 -3.03551e-12 0)
(210 -3.11658e-13 0)
(210 8.04024e-12 0)
(210 5.56942e-13 0)
(210 1.66873e-12 0)
(210 4.61512e-12 0)
(210 5.485e-12 0)
(210 2.06644e-12 0)
(210 4.9596e-12 0)
(210 2.15675e-12 0)
(210 2.38648e-12 0)
(210 7.30467e-12 0)
(210 -8.27471e-13 0)
(210 2.18183e-12 0)
(210 -2.83681e-13 0)
(210 -6.38506e-12 0)
(210 -9.92251e-12 0)
(210 -8.99114e-12 0)
(210 -7.305e-13 0)
(210 2.5003e-13 0)
(210 -7.22068e-13 0)
(210 -9.34695e-13 0)
(210 -4.00438e-12 0)
(210 -4.5694e-10 0)
(210 -5.79938e-08 0)
(210 -6.76686e-06 0)
(209.997 -0.000739457 0)
(209.893 -0.0325481 0)
(208.839 -0.44678 0)
(205.333 -2.08167 0)
(200.888 -4.30561 0)
(198.34 -5.53908 0)
(197.57 -5.78636 0)
(197.545 -5.80348 0)
(198.138 -5.5031 0)
(198.764 -5.13386 0)
(199.244 -4.88958 0)
(199.627 -4.73124 0)
(199.983 -4.62443 0)
(200.286 -4.55134 0)
(200.536 -4.5022 0)
(200.73 -4.48686 0)
(200.87 -4.51201 0)
(200.96 -4.5661 0)
(201.001 -4.6423 0)
(200.988 -4.73863 0)
(200.92 -4.86021 0)
(200.805 -5.00648 0)
(200.652 -5.16233 0)
(200.492 -5.35214 0)
(200.28 -5.55505 0)
(199.765 -5.81025 0)
(198.189 -6.13121 0)
(194.879 -6.56538 0)
(190.99 -7.07499 0)
(188.147 -7.50775 0)
(210 -1.00855e-12 0)
(210 -2.98775e-12 0)
(210 2.82987e-12 0)
(210 -3.00728e-12 0)
(210 -4.66383e-12 0)
(210 -7.39316e-12 0)
(210 -1.65186e-12 0)
(210 1.28354e-12 0)
(210 5.35637e-13 0)
(210 2.19306e-12 0)
(210 3.42055e-12 0)
(210 8.61283e-13 0)
(210 3.68293e-12 0)
(210 2.19979e-12 0)
(210 5.38247e-12 0)
(210 9.50996e-12 0)
(210 5.05289e-12 0)
(210 3.30411e-12 0)
(210 2.35512e-12 0)
(210 -2.71374e-12 0)
(210 -6.68094e-12 0)
(210 -7.64684e-12 0)
(210 1.61353e-12 0)
(210 5.27572e-12 0)
(210 4.11605e-12 0)
(210 1.55815e-12 0)
(210 -7.8285e-12 0)
(210 -1.32063e-09 0)
(210 -1.6524e-07 0)
(210 -1.85408e-05 0)
(209.993 -0.00178032 0)
(209.815 -0.0615173 0)
(208.377 -0.667595 0)
(204.48 -2.57485 0)
(200.301 -4.72099 0)
(198.213 -5.74659 0)
(197.642 -5.90717 0)
(197.731 -5.82845 0)
(198.396 -5.50799 0)
(199.016 -5.17813 0)
(199.486 -4.94807 0)
(199.859 -4.78307 0)
(200.208 -4.67171 0)
(200.506 -4.60439 0)
(200.755 -4.56714 0)
(200.947 -4.56492 0)
(201.086 -4.59969 0)
(201.175 -4.66046 0)
(201.211 -4.74363 0)
(201.188 -4.84885 0)
(201.113 -4.98058 0)
(201.002 -5.13647 0)
(200.864 -5.3046 0)
(200.72 -5.51029 0)
(200.4 -5.70622 0)
(199.519 -6.01953 0)
(197.02 -6.41447 0)
(193.162 -6.93098 0)
(189.742 -7.42402 0)
(187.663 -7.8194 0)
(210 4.41046e-14 0)
(210 -4.07509e-12 0)
(210 -1.48315e-12 0)
(210 6.71261e-13 0)
(210 3.30313e-12 0)
(210 1.81662e-12 0)
(210 -4.31123e-12 0)
(210 6.32197e-13 0)
(210 -5.79448e-12 0)
(210 -4.17135e-13 0)
(210 -1.75826e-12 0)
(210 -2.03462e-12 0)
(210 7.71629e-13 0)
(210 -1.35482e-12 0)
(210 3.83409e-12 0)
(210 1.07867e-11 0)
(210 9.73699e-12 0)
(210 7.57974e-12 0)
(210 2.24606e-12 0)
(210 -2.29523e-12 0)
(210 -9.12946e-12 0)
(210 -6.06661e-12 0)
(210 -7.20088e-13 0)
(210 9.3372e-13 0)
(210 3.17873e-12 0)
(210 6.1095e-13 0)
(210 -2.69352e-11 0)
(210 -3.72083e-09 0)
(210 -4.55207e-07 0)
(210 -5.09456e-05 0)
(209.985 -0.00401185 0)
(209.697 -0.109482 0)
(207.825 -0.94996 0)
(203.651 -3.08248 0)
(199.825 -5.08784 0)
(198.146 -5.91519 0)
(197.739 -6.02318 0)
(197.959 -5.86707 0)
(198.646 -5.49359 0)
(199.255 -5.20106 0)
(199.723 -4.99849 0)
(200.095 -4.83744 0)
(200.438 -4.72288 0)
(200.729 -4.65635 0)
(200.975 -4.62815 0)
(201.163 -4.63755 0)
(201.302 -4.68227 0)
(201.39 -4.75073 0)
(201.421 -4.84154 0)
(201.39 -4.9556 0)
(201.313 -5.09678 0)
(201.212 -5.26178 0)
(201.09 -5.44583 0)
(200.924 -5.64522 0)
(200.426 -5.9052 0)
(198.812 -6.24353 0)
(195.447 -6.75195 0)
(191.603 -7.29814 0)
(188.938 -7.73549 0)
(187.481 -8.12 0)
(210 2.18044e-12 0)
(210 -3.50408e-13 0)
(210 -5.03503e-12 0)
(210 -3.58791e-12 0)
(210 -3.96614e-12 0)
(210 1.20154e-12 0)
(210 -1.57418e-12 0)
(210 2.64018e-12 0)
(210 -1.18909e-12 0)
(210 2.11192e-12 0)
(210 -4.2143e-13 0)
(210 -1.20332e-12 0)
(210 1.41579e-12 0)
(210 -7.08103e-12 0)
(210 -3.0216e-12 0)
(210 9.341e-12 0)
(210 5.83714e-12 0)
(210 6.91388e-12 0)
(210 5.73097e-12 0)
(210 2.80649e-12 0)
(210 -1.26226e-11 0)
(210 -1.05987e-11 0)
(210 -2.04422e-12 0)
(210 8.33851e-13 0)
(210 2.22392e-12 0)
(210 -3.27288e-13 0)
(210 -7.30797e-11 0)
(210 -1.01574e-08 0)
(210 -1.21508e-06 0)
(209.999 -0.000132285 0)
(209.972 -0.00849894 0)
(209.526 -0.184132 0)
(207.195 -1.29291 0)
(202.87 -3.58553 0)
(199.444 -5.4039 0)
(198.135 -6.04897 0)
(197.862 -6.13339 0)
(198.212 -5.90066 0)
(198.902 -5.48993 0)
(199.487 -5.21307 0)
(199.954 -5.03447 0)
(200.33 -4.88658 0)
(200.671 -4.77563 0)
(200.957 -4.70884 0)
(201.197 -4.68737 0)
(201.382 -4.70572 0)
(201.518 -4.75934 0)
(201.604 -4.83634 0)
(201.629 -4.93619 0)
(201.592 -5.05997 0)
(201.52 -5.21128 0)
(201.433 -5.38489 0)
(201.316 -5.5856 0)
(201.039 -5.77746 0)
(200.159 -6.09785 0)
(197.609 -6.52934 0)
(193.741 -7.12036 0)
(190.425 -7.63228 0)
(188.528 -8.02148 0)
(187.483 -8.3991 0)
(210 2.92758e-12 0)
(210 2.66071e-12 0)
(210 -5.2158e-12 0)
(210 -2.36841e-12 0)
(210 -1.38002e-12 0)
(210 -9.40214e-13 0)
(210 3.69534e-12 0)
(210 2.23712e-12 0)
(210 -8.371e-13 0)
(210 8.45345e-13 0)
(210 1.81488e-12 0)
(210 -4.32574e-12 0)
(210 1.48676e-12 0)
(210 -3.97147e-12 0)
(210 -1.33809e-11 0)
(210 4.2146e-12 0)
(210 5.758e-12 0)
(210 6.84459e-12 0)
(210 5.32966e-12 0)
(210 4.4585e-12 0)
(210 -8.93232e-12 0)
(210 -1.02008e-11 0)
(210 -3.9948e-12 0)
(210 -2.58215e-13 0)
(210 3.11767e-12 0)
(210 3.95001e-13 0)
(210 -2.03376e-10 0)
(210 -2.69162e-08 0)
(210 -3.1338e-06 0)
(209.999 -0.000323685 0)
(209.949 -0.0169763 0)
(209.293 -0.2937 0)
(206.507 -1.69001 0)
(202.161 -4.0706 0)
(199.169 -5.6779 0)
(198.169 -6.14849 0)
(198.001 -6.23187 0)
(198.478 -5.92422 0)
(199.165 -5.49713 0)
(199.72 -5.22639 0)
(200.182 -5.06015 0)
(200.561 -4.92654 0)
(200.903 -4.82598 0)
(201.187 -4.76237 0)
(201.421 -4.74682 0)
(201.602 -4.77232 0)
(201.735 -4.83303 0)
(201.817 -4.91825 0)
(201.836 -5.02747 0)
(201.8 -5.16112 0)
(201.74 -5.32253 0)
(201.662 -5.50749 0)
(201.513 -5.70385 0)
(201.06 -5.95966 0)
(199.427 -6.31069 0)
(196.021 -6.87116 0)
(192.224 -7.48309 0)
(189.69 -7.92071 0)
(188.395 -8.29325 0)
(187.543 -8.64944 0)
(210 -6.11748e-12 0)
(210 2.73755e-12 0)
(210 -2.01751e-14 0)
(210 -5.49015e-12 0)
(210 2.74728e-12 0)
(210 -9.00616e-13 0)
(210 2.04418e-12 0)
(210 1.57418e-12 0)
(210 4.08933e-12 0)
(210 3.21595e-12 0)
(210 1.1663e-12 0)
(210 -2.65729e-12 0)
(210 -2.04433e-12 0)
(210 -3.69279e-12 0)
(210 -1.1414e-11 0)
(210 -3.50281e-12 0)
(210 5.58309e-12 0)
(210 4.54141e-12 0)
(210 3.69188e-12 0)
(210 3.55027e-12 0)
(210 -1.93607e-12 0)
(210 -1.06438e-11 0)
(210 -3.6291e-12 0)
(210 -1.5966e-12 0)
(210 9.46197e-13 0)
(210 -2.13218e-12 0)
(210 -5.382e-10 0)
(210 -6.92666e-08 0)
(210 -7.80083e-06 0)
(209.997 -0.000749317 0)
(209.911 -0.0320587 0)
(208.99 -0.445911 0)
(205.783 -2.13069 0)
(201.534 -4.5214 0)
(198.971 -5.91017 0)
(198.211 -6.24289 0)
(198.158 -6.28017 0)
(198.751 -5.94063 0)
(199.43 -5.51548 0)
(199.958 -5.24547 0)
(200.409 -5.08129 0)
(200.789 -4.95744 0)
(201.133 -4.86935 0)
(201.417 -4.81236 0)
(201.648 -4.80349 0)
(201.825 -4.83572 0)
(201.954 -4.90262 0)
(202.029 -4.99583 0)
(202.044 -5.11454 0)
(202.016 -5.25849 0)
(201.969 -5.42924 0)
(201.884 -5.63302 0)
(201.627 -5.81527 0)
(200.781 -6.13951 0)
(198.208 -6.59729 0)
(194.33 -7.24229 0)
(191.105 -7.80371 0)
(189.338 -8.18427 0)
(188.423 -8.53091 0)
(187.694 -8.90504 0)
(210 -4.8882e-12 0)
(210 -4.31969e-12 0)
(210 2.83317e-12 0)
(210 -2.65936e-12 0)
(210 8.77783e-13 0)
(210 1.49144e-12 0)
(210 3.85779e-14 0)
(210 -3.87971e-12 0)
(210 -8.72718e-13 0)
(210 3.60335e-12 0)
(210 1.86937e-12 0)
(210 -6.36743e-12 0)
(210 6.50373e-13 0)
(210 4.00685e-13 0)
(210 -4.99247e-12 0)
(210 -4.44222e-12 0)
(210 3.12721e-12 0)
(210 5.27066e-12 0)
(210 3.84208e-12 0)
(210 4.75604e-12 0)
(210 -1.31467e-12 0)
(210 -1.33387e-11 0)
(210 -5.12928e-12 0)
(210 -9.88132e-13 0)
(210 1.29068e-12 0)
(210 -4.52145e-12 0)
(210 -1.38004e-09 0)
(210 -1.7346e-07 0)
(210 -1.87838e-05 0)
(209.995 -0.00164501 0)
(209.852 -0.0573886 0)
(208.615 -0.646811 0)
(205.049 -2.60038 0)
(201.011 -4.93396 0)
(198.862 -6.10701 0)
(198.284 -6.34296 0)
(198.338 -6.29402 0)
(199.014 -5.93396 0)
(199.691 -5.53629 0)
(200.2 -5.27202 0)
(200.64 -5.1037 0)
(201.016 -4.98366 0)
(201.359 -4.90708 0)
(201.644 -4.85971 0)
(201.874 -4.85904 0)
(202.048 -4.89854 0)
(202.171 -4.97149 0)
(202.24 -5.07224 0)
(202.257 -5.19972 0)
(202.242 -5.35373 0)
(202.199 -5.53533 0)
(202.076 -5.73821 0)
(201.649 -5.98006 0)
(200.039 -6.343 0)
(196.618 -6.94116 0)
(192.852 -7.6019 0)
(190.424 -8.07138 0)
(189.252 -8.43113 0)
(188.517 -8.76134 0)
(187.868 -9.15301 0)
(210 -1.14588e-12 0)
(210 -4.11141e-12 0)
(210 -5.71609e-13 0)
(210 2.20844e-13 0)
(210 -2.13454e-12 0)
(210 1.55341e-12 0)
(210 2.77612e-12 0)
(210 -3.45572e-12 0)
(210 -2.00449e-12 0)
(210 -7.4209e-14 0)
(210 3.84768e-12 0)
(210 -4.06737e-12 0)
(210 -5.67537e-12 0)
(210 -3.95528e-12 0)
(210 -3.27931e-12 0)
(210 -5.38389e-12 0)
(210 -2.32108e-12 0)
(210 4.94472e-12 0)
(210 4.05547e-12 0)
(210 2.25662e-12 0)
(210 2.40277e-13 0)
(210 -1.03721e-11 0)
(210 -7.07026e-12 0)
(210 -1.78899e-12 0)
(210 -1.67197e-12 0)
(210 -1.81623e-11 0)
(210 -3.4366e-09 0)
(210 -4.23065e-07 0)
(210 -4.49876e-05 0)
(209.99 -0.00343004 0)
(209.764 -0.0976504 0)
(208.169 -0.899534 0)
(204.331 -3.0842 0)
(200.561 -5.29719 0)
(198.786 -6.26992 0)
(198.376 -6.44213 0)
(198.551 -6.31078 0)
(199.266 -5.90409 0)
(199.94 -5.54484 0)
(200.442 -5.29889 0)
(200.874 -5.12846 0)
(201.245 -5.00769 0)
(201.585 -4.93866 0)
(201.871 -4.9021 0)
(202.1 -4.90851 0)
(202.271 -4.95575 0)
(202.389 -5.03548 0)
(202.454 -5.14406 0)
(202.479 -5.28025 0)
(202.475 -5.44342 0)
(202.419 -5.64694 0)
(202.19 -5.83115 0)
(201.376 -6.14834 0)
(198.824 -6.63116 0)
(194.948 -7.31413 0)
(191.779 -7.91384 0)
(190.115 -8.31419 0)
(189.29 -8.63117 0)
(188.692 -8.98727 0)
(188.054 -9.39687 0)
(210 3.41576e-14 0)
(210 -1.95627e-13 0)
(210 -6.62581e-12 0)
(210 -2.43895e-12 0)
(210 -6.07512e-14 0)
(210 6.95326e-13 0)
(210 6.25433e-12 0)
(210 3.9006e-13 0)
(210 -1.96591e-12 0)
(210 5.19557e-12 0)
(210 4.65675e-12 0)
(210 -1.12192e-14 0)
(210 -3.3728e-12 0)
(210 -3.10353e-12 0)
(210 -3.1629e-12 0)
(210 -1.64122e-12 0)
(210 -1.15874e-12 0)
(210 -1.52341e-12 0)
(210 2.43632e-12 0)
(210 3.78656e-12 0)
(210 3.1574e-12 0)
(210 -5.81492e-12 0)
(210 -5.98522e-12 0)
(210 -1.43487e-12 0)
(210 -6.16651e-12 0)
(210 -5.69303e-11 0)
(210 -8.34619e-09 0)
(210 -1.0064e-06 0)
(210 -0.000104565 0)
(209.981 -0.00680551 0)
(209.639 -0.15837 0)
(207.662 -1.20376 0)
(203.645 -3.56662 0)
(200.224 -5.61888 0)
(198.784 -6.39889 0)
(198.49 -6.5317 0)
(198.79 -6.32103 0)
(199.518 -5.87388 0)
(200.178 -5.54186 0)
(200.679 -5.31958 0)
(201.109 -5.15431 0)
(201.475 -5.03319 0)
(201.81 -4.96867 0)
(202.097 -4.94278 0)
(202.323 -4.95615 0)
(202.49 -5.01147 0)
(202.603 -5.09863 0)
(202.672 -5.21496 0)
(202.709 -5.35992 0)
(202.704 -5.53253 0)
(202.607 -5.7403 0)
(202.215 -5.97863 0)
(200.648 -6.34199 0)
(197.254 -6.98136 0)
(193.501 -7.6727 0)
(191.138 -8.16664 0)
(190.065 -8.53533 0)
(189.42 -8.84098 0)
(188.879 -9.2027 0)
(188.243 -9.63653 0)
(210 -3.16906e-12 0)
(210 -9.89217e-13 0)
(210 -2.56052e-12 0)
(210 -1.19222e-12 0)
(210 -3.66189e-13 0)
(210 -1.70812e-12 0)
(210 5.32913e-13 0)
(210 2.11511e-12 0)
(210 -3.04558e-12 0)
(210 2.09453e-12 0)
(210 6.39378e-12 0)
(210 -4.46429e-13 0)
(210 -8.59427e-12 0)
(210 -2.13906e-12 0)
(210 -5.57329e-12 0)
(210 -1.43901e-12 0)
(210 2.95773e-12 0)
(210 -1.13336e-12 0)
(210 -3.06616e-12 0)
(210 -3.82313e-13 0)
(210 2.33531e-12 0)
(210 -5.08558e-12 0)
(210 -2.84862e-12 0)
(210 1.50002e-12 0)
(210 -4.58695e-12 0)
(210 -1.44175e-10 0)
(210 -1.97906e-08 0)
(210 -2.33227e-06 0)
(209.999 -0.000232803 0)
(209.966 -0.0128689 0)
(209.472 -0.24549 0)
(207.105 -1.55535 0)
(203.012 -4.03487 0)
(199.929 -5.89168 0)
(198.801 -6.505 0)
(198.621 -6.62027 0)
(199.043 -6.32272 0)
(199.772 -5.84947 0)
(200.411 -5.53392 0)
(200.91 -5.33097 0)
(201.342 -5.17567 0)
(201.707 -5.0575 0)
(202.036 -4.99585 0)
(202.324 -4.97869 0)
(202.545 -4.99884 0)
(202.708 -5.06167 0)
(202.821 -5.15617 0)
(202.898 -5.2803 0)
(202.944 -5.43379 0)
(202.918 -5.63035 0)
(202.722 -5.81498 0)
(201.963 -6.13601 0)
(199.462 -6.62709 0)
(195.609 -7.35833 0)
(192.455 -7.97636 0)
(190.856 -8.39349 0)
(190.11 -8.7067 0)
(189.611 -9.04055 0)
(189.073 -9.41784 0)
(188.444 -9.86813 0)
(210 -3.28743e-12 0)
(210 -2.28893e-12 0)
(210 -2.76911e-12 0)
(210 -2.5529e-12 0)
(210 -1.12185e-12 0)
(210 -2.5699e-12 0)
(210 -2.40716e-12 0)
(210 5.66016e-13 0)
(210 -3.76015e-12 0)
(210 -3.6575e-12 0)
(210 1.9384e-12 0)
(210 6.7078e-12 0)
(210 -3.68344e-12 0)
(210 -4.55204e-12 0)
(210 -8.7128e-12 0)
(210 -4.56284e-12 0)
(210 3.2519e-12 0)
(210 2.38893e-12 0)
(210 -3.04627e-12 0)
(210 -5.39965e-13 0)
(210 2.21186e-12 0)
(210 -4.55988e-12 0)
(210 -3.57085e-12 0)
(210 -4.83183e-13 0)
(210 -1.63228e-12 0)
(210 -3.48922e-10 0)
(210 -4.58429e-08 0)
(210 -5.26114e-06 0)
(209.998 -0.000497003 0)
(209.943 -0.0232284 0)
(209.255 -0.364782 0)
(206.512 -1.94684 0)
(202.443 -4.4792 0)
(199.754 -6.12872 0)
(198.855 -6.57879 0)
(198.767 -6.67968 0)
(199.306 -6.31859 0)
(200.028 -5.83204 0)
(200.642 -5.52634 0)
(201.137 -5.33635 0)
(201.571 -5.19254 0)
(201.937 -5.08157 0)
(202.263 -5.02375 0)
(202.55 -5.01452 0)
(202.764 -5.04146 0)
(202.924 -5.11136 0)
(203.041 -5.21258 0)
(203.131 -5.34469 0)
(203.171 -5.50679 0)
(203.103 -5.71295 0)
(202.755 -5.9445 0)
(201.271 -6.31692 0)
(197.929 -6.97943 0)
(194.187 -7.72311 0)
(191.837 -8.21985 0)
(190.828 -8.59108 0)
(190.266 -8.89163 0)
(189.811 -9.2281 0)
(189.267 -9.63052 0)
(188.655 -10.0922 0)
(210 -9.37283e-14 0)
(210 -3.61577e-12 0)
(210 -4.13332e-12 0)
(210 -7.20509e-12 0)
(210 -2.29527e-12 0)
(210 -1.34586e-12 0)
(210 -2.25067e-12 0)
(210 3.28325e-12 0)
(210 2.12117e-12 0)
(210 1.60796e-12 0)
(210 1.21237e-13 0)
(210 2.4805e-13 0)
(210 3.04227e-12 0)
(210 -4.60582e-12 0)
(210 -9.13246e-12 0)
(210 -5.78763e-12 0)
(210 1.60422e-12 0)
(210 1.89295e-12 0)
(210 -1.32942e-12 0)
(210 -1.49837e-12 0)
(210 4.20677e-13 0)
(210 -7.52062e-12 0)
(210 -4.41702e-12 0)
(210 -3.63527e-13 0)
(210 -2.87627e-12 0)
(210 -8.04776e-10 0)
(210 -1.03772e-07 0)
(210 -1.15451e-05 0)
(209.997 -0.00101823 0)
(209.907 -0.0400938 0)
(208.986 -0.521084 0)
(205.904 -2.36866 0)
(201.939 -4.88837 0)
(199.6 -6.32914 0)
(198.908 -6.66631 0)
(198.924 -6.70238 0)
(199.571 -6.30576 0)
(200.287 -5.82403 0)
(200.875 -5.52184 0)
(201.362 -5.33699 0)
(201.798 -5.20245 0)
(202.165 -5.10031 0)
(202.49 -5.04729 0)
(202.775 -5.04563 0)
(202.983 -5.07901 0)
(203.142 -5.15532 0)
(203.27 -5.26313 0)
(203.369 -5.40369 0)
(203.38 -5.58979 0)
(203.219 -5.77147 0)
(202.54 -6.09132 0)
(200.139 -6.59367 0)
(196.314 -7.35977 0)
(193.157 -8.02676 0)
(191.568 -8.43323 0)
(190.884 -8.74541 0)
(190.468 -9.0662 0)
(190.013 -9.41554 0)
(189.465 -9.83881 0)
(188.882 -10.3065 0)
(210 -4.15998e-13 0)
(210 -6.74692e-13 0)
(210 -3.72132e-12 0)
(210 -6.80054e-12 0)
(210 -4.73266e-12 0)
(210 -1.54012e-12 0)
(210 -2.17386e-12 0)
(210 7.55079e-13 0)
(210 -6.77875e-14 0)
(210 5.55874e-12 0)
(210 2.64594e-12 0)
(210 -9.76142e-13 0)
(210 2.24985e-12 0)
(210 -2.84134e-12 0)
(210 -7.36294e-12 0)
(210 -5.6128e-12 0)
(210 3.0708e-12 0)
(210 4.22108e-12 0)
(210 -3.95144e-14 0)
(210 -7.38887e-13 0)
(210 9.87476e-13 0)
(210 -7.36685e-12 0)
(210 -6.53307e-12 0)
(210 -2.85248e-12 0)
(210 -1.14725e-11 0)
(210 -1.80897e-09 0)
(210 -2.29721e-07 0)
(210 -2.46804e-05 0)
(209.995 -0.00200309 0)
(209.855 -0.066306 0)
(208.664 -0.717788 0)
(205.293 -2.80845 0)
(201.526 -5.26183 0)
(199.542 -6.49516 0)
(198.999 -6.74784 0)
(199.1 -6.6975 0)
(199.825 -6.27463 0)
(200.54 -5.81842 0)
(201.11 -5.52276 0)
(201.588 -5.3375 0)
(202.021 -5.20895 0)
(202.391 -5.11682 0)
(202.715 -5.07088 0)
(202.997 -5.07804 0)
(203.199 -5.11793 0)
(203.363 -5.1995 0)
(203.504 -5.3133 0)
(203.594 -5.46274 0)
(203.562 -5.66394 0)
(203.261 -5.88101 0)
(201.909 -6.2574 0)
(198.66 -6.94319 0)
(194.901 -7.72336 0)
(192.537 -8.26189 0)
(191.547 -8.6105 0)
(191.057 -8.9092 0)
(190.678 -9.22861 0)
(190.211 -9.60024 0)
(189.669 -10.04 0)
(189.124 -10.5099 0)
(210 3.29817e-14 0)
(210 4.3893e-12 0)
(210 1.30009e-12 0)
(210 -1.91121e-12 0)
(210 -1.56943e-12 0)
(210 -6.18701e-13 0)
(210 -2.02004e-12 0)
(210 -4.40999e-12 0)
(210 -9.70192e-13 0)
(210 1.256e-12 0)
(210 2.13787e-12 0)
(210 -1.58654e-12 0)
(210 3.14567e-12 0)
(210 8.31654e-13 0)
(210 -4.39801e-12 0)
(210 -4.93986e-12 0)
(210 7.75463e-13 0)
(210 3.9398e-12 0)
(210 5.81235e-13 0)
(210 1.38801e-12 0)
(210 3.91113e-12 0)
(210 -5.00048e-12 0)
(210 -7.88489e-12 0)
(210 -6.61985e-12 0)
(210 -2.69907e-11 0)
(210 -3.98607e-09 0)
(210 -4.9743e-07 0)
(210 -5.2285e-05 0)
(209.99 -0.00378557 0)
(209.781 -0.105283 0)
(208.293 -0.955915 0)
(204.703 -3.25598 0)
(201.154 -5.59176 0)
(199.485 -6.63595 0)
(199.094 -6.82912 0)
(199.308 -6.69713 0)
(200.069 -6.22778 0)
(200.784 -5.80485 0)
(201.344 -5.52398 0)
(201.814 -5.33764 0)
(202.244 -5.21133 0)
(202.614 -5.12734 0)
(202.939 -5.08942 0)
(203.215 -5.10376 0)
(203.418 -5.1505 0)
(203.592 -5.23717 0)
(203.743 -5.35832 0)
(203.803 -5.52734 0)
(203.683 -5.71176 0)
(203.099 -6.01466 0)
(200.854 -6.51909 0)
(197.077 -7.32623 0)
(193.865 -8.03297 0)
(192.269 -8.46609 0)
(191.61 -8.74774 0)
(191.268 -9.06278 0)
(190.887 -9.3919 0)
(190.408 -9.78466 0)
(189.881 -10.2331 0)
(189.373 -10.7026 0)
(210 -1.47264e-12 0)
(210 2.61207e-12 0)
(210 3.18221e-12 0)
(210 4.65664e-13 0)
(210 -3.30959e-12 0)
(210 3.74241e-14 0)
(210 1.67416e-12 0)
(210 -1.8986e-12 0)
(210 -4.76346e-12 0)
(210 -1.71747e-12 0)
(210 3.1285e-12 0)
(210 1.41886e-12 0)
(210 1.79437e-12 0)
(210 -3.19144e-13 0)
(210 -2.79023e-12 0)
(210 -4.93977e-12 0)
(210 5.4412e-13 0)
(210 2.69807e-12 0)
(210 3.15048e-12 0)
(210 1.52972e-13 0)
(210 4.0738e-12 0)
(210 -1.02063e-12 0)
(210 -5.92273e-12 0)
(210 -6.04743e-12 0)
(210 -6.1488e-11 0)
(210 -8.60048e-09 0)
(210 -1.05415e-06 0)
(210 -0.000107943 0)
(209.984 -0.00687987 0)
(209.681 -0.160846 0)
(207.879 -1.23453 0)
(204.136 -3.69854 0)
(200.887 -5.88491 0)
(199.504 -6.74343 0)
(199.209 -6.89871 0)
(199.534 -6.68566 0)
(200.311 -6.17904 0)
(201.017 -5.7849 0)
(201.574 -5.52409 0)
(202.041 -5.34001 0)
(202.466 -5.21427 0)
(202.835 -5.13689 0)
(203.161 -5.10896 0)
(203.43 -5.12913 0)
(203.638 -5.18397 0)
(203.827 -5.27543 0)
(203.971 -5.40553 0)
(203.982 -5.59726 0)
(203.734 -5.79646 0)
(202.556 -6.1654 0)
(199.455 -6.865 0)
(195.669 -7.69909 0)
(193.23 -8.26621 0)
(192.248 -8.62984 0)
(191.79 -8.89318 0)
(191.488 -9.20452 0)
(191.09 -9.55141 0)
(190.609 -9.96448 0)
(190.102 -10.4176 0)
(189.628 -10.8845 0)
(189.226 -11.3438 0)
(188.895 -11.7586 0)
(188.625 -12.1267 0)
(188.392 -12.4664 0)
(188.186 -12.7203 0)
(187.963 -12.9442 0)
(187.666 -13.2231 0)
(187.295 -13.5496 0)
(186.813 -14.0031 0)
(186.264 -14.5744 0)
(185.698 -15.1812 0)
(185.127 -15.8123 0)
(184.545 -16.4809 0)