/*--------------------------------*- C++ -*----------------------------------*\
| =========                 |                                                 |
| \\      /  F ield         | OpenFOAM: The Open Source CFD Toolbox           |
|  \\    /   O peration     | Version:  2412                                  |
|   \\  /    A nd           | Website:  www.openfoam.com                      |
|    \\/     M anipulation  |                                                 |
\*---------------------------------------------------------------------------*/
FoamFile
{
    version     2.0;
    format      ascii;
    arch        "LSB;label=32;scalar=64";
    class       volVectorField;
    location    "0.093";
    object      U;
}
// * * * * * * * * * * * * * * * * * * * * * * * * * * * * * * * * * * * * * //

dimensions      [0 1 -1 0 0 0 0];

internalField   nonuniform List<vector> 
9831
(
(316.363 167.856 0)
(273.055 1.7653 0)
(316.598 168.76 0)
(273.237 1.87789 0)
(252.215 -3.80207 0)
(241.899 -3.83984 0)
(233.722 -5.70634 0)
(228.072 -7.198 0)
(224.401 -8.79871 0)
(221.868 -9.87273 0)
(220.265 -10.8302 0)
(218.947 -11.5029 0)
(217.827 -12.0375 0)
(216.781 -12.4386 0)
(215.792 -12.747 0)
(214.852 -12.984 0)
(213.958 -13.1671 0)
(213.106 -13.3089 0)
(212.29 -13.4175 0)
(211.504 -13.4999 0)
(210.737 -13.564 0)
(209.982 -13.6186 0)
(209.237 -13.67 0)
(208.506 -13.7185 0)
(207.795 -13.7619 0)
(207.109 -13.799 0)
(206.446 -13.8318 0)
(205.807 -13.862 0)
(205.19 -13.8908 0)
(204.596 -13.9159 0)
(204.024 -13.9353 0)
(203.476 -13.9465 0)
(202.95 -13.948 0)
(202.442 -13.9397 0)
(201.949 -13.9229 0)
(201.47 -13.8997 0)
(201 -13.8726 0)
(200.539 -13.8438 0)
(200.084 -13.8145 0)
(199.637 -13.7851 0)
(199.195 -13.7564 0)
(198.759 -13.729 0)
(198.331 -13.7042 0)
(197.91 -13.6824 0)
(197.499 -13.664 0)
(197.099 -13.6486 0)
(196.713 -13.636 0)
(196.343 -13.626 0)
(195.991 -13.6185 0)
(195.658 -13.6134 0)
(195.346 -13.6107 0)
(195.056 -13.61 0)
(316.679 169.479 0)
(273.416 1.97995 0)
(252.358 -3.77222 0)
(242.015 -3.82833 0)
(233.805 -5.7344 0)
(228.125 -7.2466 0)
(224.437 -8.84975 0)
(221.898 -9.9191 0)
(220.291 -10.8737 0)
(218.971 -11.5436 0)
(217.848 -12.0766 0)
(216.799 -12.4764 0)
(215.808 -12.7838 0)
(214.865 -13.0201 0)
(213.969 -13.2026 0)
(213.115 -13.3439 0)
(212.298 -13.4521 0)
(211.51 -13.5344 0)
(210.741 -13.5987 0)
(209.985 -13.6538 0)
(209.239 -13.7057 0)
(208.508 -13.7544 0)
(207.797 -13.798 0)
(207.11 -13.8351 0)
(206.447 -13.8678 0)
(205.808 -13.8981 0)
(205.192 -13.9269 0)
(204.598 -13.9521 0)
(204.027 -13.9714 0)
(203.479 -13.9826 0)
(202.953 -13.9842 0)
(202.445 -13.9762 0)
(201.953 -13.9597 0)
(201.473 -13.9371 0)
(201.003 -13.9108 0)
(200.542 -13.8829 0)
(200.087 -13.8545 0)
(199.639 -13.8262 0)
(199.198 -13.7986 0)
(198.762 -13.7724 0)
(198.333 -13.7485 0)
(197.912 -13.7277 0)
(197.5 -13.71 0)
(197.1 -13.6952 0)
(196.714 -13.6828 0)
(196.344 -13.6727 0)
(195.992 -13.6647 0)
(195.659 -13.6589 0)
(195.347 -13.6549 0)
(195.057 -13.6526 0)
(194.792 -13.6515 0)
(194.553 -13.6508 0)
(316.735 170.11 0)
(273.58 2.07351 0)
(252.498 -3.74487 0)
(242.131 -3.81702 0)
(233.888 -5.76308 0)
(228.175 -7.29509 0)
(224.475 -8.89849 0)
(221.93 -9.96305 0)
(220.319 -10.9156 0)
(218.994 -11.5834 0)
(217.868 -12.1151 0)
(216.817 -12.5135 0)
(215.823 -12.8199 0)
(214.879 -13.0555 0)
(213.981 -13.2374 0)
(213.126 -13.3783 0)
(212.307 -13.4861 0)
(211.517 -13.5684 0)
(210.746 -13.633 0)
(209.988 -13.6886 0)
(209.241 -13.7409 0)
(208.508 -13.79 0)
(207.796 -13.8337 0)
(207.109 -13.8707 0)
(206.447 -13.9035 0)
(205.808 -13.9337 0)
(205.191 -13.9626 0)
(204.597 -13.9878 0)
(204.027 -14.0072 0)
(203.479 -14.0183 0)
(202.953 -14.02 0)
(202.446 -14.0122 0)
(201.953 -13.9962 0)
(201.474 -13.9742 0)
(201.004 -13.9486 0)
(200.543 -13.9216 0)
(200.088 -13.8943 0)
(199.64 -13.8671 0)
(199.197 -13.8406 0)
(198.761 -13.8155 0)
(198.332 -13.7927 0)
(197.91 -13.7728 0)
(197.498 -13.7558 0)
(197.098 -13.7415 0)
(196.712 -13.7293 0)
(196.342 -13.7191 0)
(195.989 -13.7108 0)
(195.656 -13.7041 0)
(195.344 -13.699 0)
(195.055 -13.6951 0)
(194.789 -13.6917 0)
(194.55 -13.6883 0)
(194.339 -13.6842 0)
(194.157 -13.6783 0)
(316.881 170.906 0)
(273.736 2.17293 0)
(252.635 -3.71727 0)
(242.245 -3.80531 0)
(233.969 -5.79038 0)
(228.226 -7.34204 0)
(224.51 -8.94746 0)
(221.959 -10.0077 0)
(220.344 -10.9575 0)
(219.017 -11.6227 0)
(217.888 -12.1528 0)
(216.834 -12.55 0)
(215.838 -12.8555 0)
(214.892 -13.0904 0)
(213.992 -13.2718 0)
(213.135 -13.4122 0)
(212.315 -13.5198 0)
(211.523 -13.602 0)
(210.751 -13.6669 0)
(209.991 -13.7229 0)
(209.242 -13.7758 0)
(208.509 -13.8252 0)
(207.798 -13.869 0)
(207.111 -13.906 0)
(206.448 -13.9387 0)
(205.809 -13.9691 0)
(205.193 -13.9981 0)
(204.599 -14.0234 0)
(204.029 -14.0427 0)
(203.482 -14.0539 0)
(202.956 -14.0557 0)
(202.449 -14.0482 0)
(201.957 -14.0326 0)
(201.477 -14.0112 0)
(201.008 -13.9864 0)
(200.546 -13.9603 0)
(200.091 -13.934 0)
(199.643 -13.9079 0)
(199.2 -13.8825 0)
(198.764 -13.8586 0)
(198.333 -13.8369 0)
(197.911 -13.8179 0)
(197.499 -13.8017 0)
(197.099 -13.7878 0)
(196.713 -13.7759 0)
(196.342 -13.7657 0)
(195.99 -13.7569 0)
(195.657 -13.7495 0)
(195.344 -13.7433 0)
(195.054 -13.7377 0)
(194.789 -13.7322 0)
(194.549 -13.726 0)
(194.337 -13.7185 0)
(194.155 -13.7087 0)
(194.003 -13.6964 0)
(193.882 -13.6783 0)
(193.795 -13.6588 0)
(193.753 -13.6311 0)
(193.741 -13.6117 0)
(193.751 -13.5738 0)
(193.801 -13.5309 0)
(193.888 -13.4814 0)
(194.01 -13.4245 0)
(194.165 -13.3594 0)
(194.353 -13.2861 0)
(194.572 -13.2042 0)
(194.82 -13.1132 0)
(195.096 -13.0133 0)
(195.399 -12.9042 0)
(195.726 -12.7858 0)
(196.076 -12.6589 0)
(196.446 -12.5227 0)
(196.835 -12.3789 0)
(197.24 -12.2259 0)
(197.66 -12.067 0)
(198.091 -11.8986 0)
(198.534 -11.727 0)
(198.982 -11.5451 0)
(199.44 -11.3635 0)
(199.898 -11.1703 0)
(200.365 -10.9815 0)
(200.826 -10.7793 0)
(201.295 -10.5862 0)
(201.752 -10.3773 0)
(202.217 -10.1824 0)
(202.666 -9.96959 0)
(203.123 -9.77488 0)
(203.558 -9.56081 0)
(204.003 -9.36793 0)
(204.423 -9.15496 0)
(204.851 -8.96527 0)
(205.252 -8.75561 0)
(205.661 -8.57027 0)
(206.041 -8.36578 0)
(206.43 -8.18575 0)
(206.789 -7.98794 0)
(207.158 -7.81411 0)
(207.498 -7.62422 0)
(207.846 -7.45731 0)
(208.166 -7.27617 0)
(208.493 -7.1167 0)
(208.793 -6.94474 0)
(209.098 -6.79303 0)
(209.377 -6.63037 0)
(209.659 -6.48659 0)
(209.917 -6.33323 0)
(210.18 -6.19755 0)
(210.422 -6.05381 0)
(210.671 -5.92655 0)
(210.905 -5.79298 0)
(211.143 -5.67425 0)
(211.364 -5.5506 0)
(211.584 -5.43983 0)
(211.781 -5.32531 0)
(211.965 -5.2216 0)
(212.114 -5.11591 0)
(212.219 -5.01362 0)
(212.319 -4.90935 0)
(212.338 -4.82694 0)
(316.872 171.405 0)
(273.884 2.26893 0)
(252.769 -3.69048 0)
(242.358 -3.79354 0)
(234.05 -5.8184 0)
(228.274 -7.38902 0)
(224.547 -8.99428 0)
(221.99 -10.0501 0)
(220.371 -10.9979 0)
(219.039 -11.6612 0)
(217.907 -12.1899 0)
(216.851 -12.5859 0)
(215.853 -12.8905 0)
(214.905 -13.1246 0)
(214.004 -13.3056 0)
(213.145 -13.4456 0)
(212.323 -13.5529 0)
(211.529 -13.6352 0)
(210.755 -13.7003 0)
(209.994 -13.7569 0)
(209.244 -13.8102 0)
(208.51 -13.8599 0)
(207.798 -13.9038 0)
(207.11 -13.9409 0)
(206.448 -13.9736 0)
(205.809 -14.0041 0)
(205.193 -14.0332 0)
(204.599 -14.0585 0)
(204.03 -14.0779 0)
(203.483 -14.0891 0)
(202.957 -14.091 0)
(202.45 -14.0838 0)
(201.958 -14.0686 0)
(201.479 -14.0478 0)
(201.009 -14.0239 0)
(200.547 -13.9987 0)
(200.092 -13.9735 0)
(199.643 -13.9485 0)
(199.2 -13.9243 0)
(198.763 -13.9015 0)
(198.332 -13.8809 0)
(197.91 -13.8629 0)
(197.497 -13.8474 0)
(197.096 -13.834 0)
(196.71 -13.8224 0)
(196.34 -13.812 0)
(195.987 -13.8029 0)
(195.654 -13.7948 0)
(195.341 -13.7874 0)
(195.05 -13.7802 0)
(194.784 -13.7725 0)
(194.544 -13.7636 0)
(194.331 -13.7528 0)
(194.148 -13.7388 0)
(193.994 -13.7218 0)
(193.872 -13.6981 0)
(193.784 -13.673 0)
(193.741 -13.6382 0)
(193.728 -13.6092 0)
(193.734 -13.5638 0)
(193.781 -13.5111 0)
(193.864 -13.4511 0)
(193.982 -13.3831 0)
(194.133 -13.3061 0)
(194.315 -13.2202 0)
(194.528 -13.1249 0)
(194.769 -13.0199 0)
(195.039 -12.9054 0)
(195.334 -12.7811 0)
(195.653 -12.6472 0)
(195.994 -12.5043 0)
(196.354 -12.3518 0)
(196.733 -12.1914 0)
(197.127 -12.0216 0)
(197.536 -11.8457 0)
(197.955 -11.6605 0)
(198.386 -11.4717 0)
(198.822 -11.2732 0)
(199.267 -11.0745 0)
(199.712 -10.865 0)
(200.166 -10.6594 0)
(200.613 -10.4415 0)
(201.068 -10.2319 0)
(201.511 -10.0081 0)
(201.963 -9.79725 0)
(202.397 -9.57031 0)
(202.84 -9.3604 0)
(203.261 -9.13299 0)
(203.692 -8.92573 0)
(204.097 -8.70027 0)
(204.512 -8.49711 0)
(204.898 -8.27581 0)
(205.294 -8.07795 0)
(205.66 -7.86263 0)
(206.036 -7.67103 0)
(206.382 -7.4632 0)
(206.737 -7.27872 0)
(207.064 -7.0796 0)
(207.4 -6.90294 0)
(207.708 -6.7133 0)
(208.023 -6.54493 0)
(208.311 -6.36518 0)
(208.605 -6.20536 0)
(208.872 -6.03559 0)
(209.144 -5.88444 0)
(209.391 -5.72462 0)
(209.644 -5.58226 0)
(209.877 -5.43268 0)
(210.116 -5.29937 0)
(210.34 -5.16048 0)
(210.57 -5.03624 0)
(210.783 -4.90773 0)
(210.994 -4.79204 0)
(211.182 -4.67309 0)
(211.359 -4.56536 0)
(211.5 -4.45608 0)
(211.583 -4.34881 0)
(211.683 -4.24138 0)
(211.699 -4.15593 0)
(211.778 -4.04572 0)
(211.814 -4.09643 0)
(316.948 172.094 0)
(274.015 2.38417 0)
(252.901 -3.6629 0)
(242.47 -3.78156 0)
(234.129 -5.84513 0)
(228.323 -7.43436 0)
(224.581 -9.0412 0)
(222.018 -10.0931 0)
(220.396 -11.0385 0)
(219.061 -11.6991 0)
(217.927 -12.2264 0)
(216.868 -12.6212 0)
(215.867 -12.925 0)
(214.917 -13.1585 0)
(214.014 -13.339 0)
(213.154 -13.4786 0)
(212.33 -13.5856 0)
(211.535 -13.6679 0)
(210.759 -13.7334 0)
(209.996 -13.7904 0)
(209.246 -13.8442 0)
(208.511 -13.8943 0)
(207.799 -13.9383 0)
(207.112 -13.9754 0)
(206.45 -14.0082 0)
(205.811 -14.0388 0)
(205.195 -14.068 0)
(204.602 -14.0934 0)
(204.032 -14.1128 0)
(203.486 -14.1241 0)
(202.961 -14.1262 0)
(202.454 -14.1192 0)
(201.962 -14.1046 0)
(201.482 -14.0844 0)
(201.013 -14.0613 0)
(200.551 -14.0371 0)
(200.096 -14.0129 0)
(199.647 -13.9891 0)
(199.203 -13.9661 0)
(198.765 -13.9444 0)
(198.334 -13.9249 0)
(197.911 -13.9079 0)
(197.498 -13.8932 0)
(197.097 -13.8803 0)
(196.711 -13.8689 0)
(196.34 -13.8585 0)
(195.987 -13.849 0)
(195.653 -13.8402 0)
(195.34 -13.8317 0)
(195.049 -13.8229 0)
(194.782 -13.8132 0)
(194.541 -13.8016 0)
(194.327 -13.7875 0)
(194.142 -13.7695 0)
(193.987 -13.7479 0)
(193.863 -13.719 0)
(193.773 -13.6881 0)
(193.728 -13.6464 0)
(193.711 -13.6079 0)
(193.713 -13.5554 0)
(193.754 -13.4932 0)
(193.832 -13.423 0)
(193.945 -13.3444 0)
(194.089 -13.256 0)
(194.265 -13.1579 0)
(194.47 -13.0497 0)
(194.703 -12.9313 0)
(194.964 -12.8028 0)
(195.249 -12.664 0)
(195.558 -12.5152 0)
(195.888 -12.3569 0)
(196.237 -12.1889 0)
(196.604 -12.0126 0)
(196.986 -11.8269 0)
(197.381 -11.6348 0)
(197.787 -11.4336 0)
(198.204 -11.2284 0)
(198.626 -11.014 0)
(199.057 -10.799 0)
(199.488 -10.5741 0)
(199.926 -10.3524 0)
(200.359 -10.1195 0)
(200.799 -9.89427 0)
(201.227 -9.65619 0)
(201.664 -9.43013 0)
(202.083 -9.18963 0)
(202.511 -8.96513 0)
(202.918 -8.72491 0)
(203.334 -8.5038 0)
(203.724 -8.26629 0)
(204.125 -8.05008 0)
(204.497 -7.81747 0)
(204.88 -7.60742 0)
(205.232 -7.38152 0)
(205.595 -7.17858 0)
(205.928 -6.96091 0)
(206.271 -6.76594 0)
(206.585 -6.55769 0)
(206.909 -6.37136 0)
(207.205 -6.17328 0)
(207.51 -5.99604 0)
(207.786 -5.80852 0)
(208.07 -5.64059 0)
(208.326 -5.46368 0)
(208.589 -5.30513 0)
(208.826 -5.13878 0)
(209.07 -4.98969 0)
(209.293 -4.83416 0)
(209.524 -4.69469 0)
(209.74 -4.55036 0)
(209.961 -4.42047 0)
(210.166 -4.28691 0)
(210.37 -4.16613 0)
(210.551 -4.04249 0)
(210.721 -3.93078 0)
(210.855 -3.8168 0)
(210.916 -3.70578 0)
(211.014 -3.59475 0)
(211.025 -3.50851 0)
(211.104 -3.39484 0)
(211.141 -3.43671 0)
(317.022 172.878 0)
(274.133 2.48274 0)
(253.031 -3.6377 0)
(242.582 -3.76963 0)
(234.208 -5.87269 0)
(228.37 -7.47986 0)
(224.617 -9.08612 0)
(222.049 -10.134 0)
(220.421 -11.0776 0)
(219.083 -11.7363 0)
(217.945 -12.2623 0)
(216.884 -12.6559 0)
(215.881 -12.9588 0)
(214.929 -13.1917 0)
(214.025 -13.3718 0)
(213.163 -13.511 0)
(212.338 -13.6179 0)
(211.541 -13.7002 0)
(210.764 -13.766 0)
(209.999 -13.8236 0)
(209.247 -13.8779 0)
(208.511 -13.9283 0)
(207.799 -13.9724 0)
(207.111 -14.0096 0)
(206.449 -14.0424 0)
(205.811 -14.0731 0)
(205.195 -14.1025 0)
(204.602 -14.128 0)
(204.033 -14.1475 0)
(203.487 -14.1588 0)
(202.962 -14.161 0)
(202.455 -14.1544 0)
(201.963 -14.1402 0)
(201.484 -14.1208 0)
(201.014 -14.0984 0)
(200.552 -14.0752 0)
(200.097 -14.0521 0)
(199.647 -14.0295 0)
(199.203 -14.0077 0)
(198.765 -13.9872 0)
(198.333 -13.9688 0)
(197.909 -13.9527 0)
(197.496 -13.9388 0)
(197.095 -13.9265 0)
(196.708 -13.9153 0)
(196.337 -13.9049 0)
(195.984 -13.895 0)
(195.65 -13.8855 0)
(195.336 -13.8759 0)
(195.044 -13.8655 0)
(194.776 -13.8537 0)
(194.534 -13.8393 0)
(194.319 -13.822 0)
(194.133 -13.7999 0)
(193.976 -13.7736 0)
(193.849 -13.7394 0)
(193.757 -13.7029 0)
(193.71 -13.654 0)
(193.691 -13.6057 0)
(193.688 -13.5468 0)
(193.725 -13.4745 0)
(193.799 -13.394 0)
(193.906 -13.3045 0)
(194.044 -13.2045 0)
(194.213 -13.094 0)
(194.411 -12.9729 0)
(194.637 -12.8408 0)
(194.889 -12.6981 0)
(195.165 -12.5446 0)
(195.464 -12.3807 0)
(195.783 -12.207 0)
(196.121 -12.0231 0)
(196.477 -11.8308 0)
(196.846 -11.6291 0)
(197.23 -11.4206 0)
(197.622 -11.2032 0)
(198.026 -10.9816 0)
(198.434 -10.7513 0)
(198.851 -10.5199 0)
(199.267 -10.2794 0)
(199.691 -10.0418 0)
(200.108 -9.79397 0)
(200.534 -9.55313 0)
(200.947 -9.30084 0)
(201.368 -9.05979 0)
(201.772 -8.80588 0)
(202.186 -8.56709 0)
(202.577 -8.31428 0)
(202.978 -8.07969 0)
(203.354 -7.83045 0)
(203.74 -7.60167 0)
(204.097 -7.35817 0)
(204.465 -7.13645 0)
(204.803 -6.9005 0)
(205.152 -6.68681 0)
(205.471 -6.45989 0)
(205.801 -6.25507 0)
(206.102 -6.03832 0)
(206.414 -5.843 0)
(206.697 -5.63716 0)
(206.989 -5.45173 0)
(207.254 -5.25712 0)
(207.526 -5.08178 0)
(207.771 -4.89843 0)
(208.023 -4.73318 0)
(208.249 -4.561 0)
(208.483 -4.40586 0)
(208.696 -4.2451 0)
(208.918 -4.10016 0)
(209.125 -3.95109 0)
(209.337 -3.81629 0)
(209.534 -3.67845 0)
(209.73 -3.55337 0)
(209.902 -3.42589 0)
(210.065 -3.31081 0)
(210.189 -3.19216 0)
(210.233 -3.07893 0)
(210.327 -2.9653 0)
(210.335 -2.87642 0)
(210.413 -2.7606 0)
(210.449 -2.79741 0)
(316.977 173.267 0)
(274.235 2.54617 0)
(253.158 -3.60936 0)
(242.692 -3.75766 0)
(234.285 -5.89906 0)
(228.417 -7.52363 0)
(224.649 -9.13103 0)
(222.076 -10.1754 0)
(220.445 -11.1167 0)
(219.104 -11.773 0)
(217.964 -12.2975 0)
(216.9 -12.69 0)
(215.895 -12.9922 0)
(214.941 -13.2245 0)
(214.035 -13.4042 0)
(213.172 -13.5431 0)
(212.345 -13.6498 0)
(211.547 -13.7322 0)
(210.768 -13.7983 0)
(210.002 -13.8564 0)
(209.248 -13.9112 0)
(208.513 -13.9619 0)
(207.8 -14.0062 0)
(207.113 -14.0434 0)
(206.451 -14.0763 0)
(205.813 -14.1072 0)
(205.197 -14.1368 0)
(204.605 -14.1623 0)
(204.036 -14.1819 0)
(203.49 -14.1933 0)
(202.965 -14.1958 0)
(202.459 -14.1895 0)
(201.968 -14.1758 0)
(201.488 -14.157 0)
(201.018 -14.1355 0)
(200.556 -14.1133 0)
(200.1 -14.0913 0)
(199.65 -14.0699 0)
(199.206 -14.0493 0)
(198.767 -14.03 0)
(198.335 -14.0128 0)
(197.911 -13.9977 0)
(197.497 -13.9845 0)
(197.096 -13.9727 0)
(196.709 -13.9618 0)
(196.337 -13.9514 0)
(195.984 -13.9413 0)
(195.649 -13.9311 0)
(195.334 -13.9204 0)
(195.042 -13.9085 0)
(194.773 -13.8946 0)
(194.529 -13.8777 0)
(194.313 -13.8571 0)
(194.124 -13.8311 0)
(193.965 -13.8003 0)
(193.836 -13.7612 0)
(193.741 -13.7189 0)
(193.691 -13.6632 0)
(193.668 -13.6055 0)
(193.659 -13.54 0)
(193.691 -13.4583 0)
(193.758 -13.3681 0)
(193.858 -13.2683 0)
(193.989 -13.1572 0)
(194.15 -13.0349 0)
(194.339 -12.9014 0)
(194.555 -12.7564 0)
(194.796 -12.6002 0)
(195.061 -12.4328 0)
(195.349 -12.2545 0)
(195.656 -12.0661 0)
(195.981 -11.8674 0)
(196.323 -11.6599 0)
(196.679 -11.4429 0)
(197.048 -11.219 0)
(197.426 -10.9863 0)
(197.814 -10.7492 0)
(198.207 -10.5038 0)
(198.608 -10.257 0)
(199.008 -10.0018 0)
(199.416 -9.74892 0)
(199.818 -9.48695 0)
(200.227 -9.23134 0)
(200.624 -8.96553 0)
(201.03 -8.71022 0)
(201.418 -8.44352 0)
(201.815 -8.19107 0)
(202.191 -7.92619 0)
(202.577 -7.67865 0)
(202.937 -7.41808 0)
(203.309 -7.1771 0)
(203.651 -6.92302 0)
(204.005 -6.68989 0)
(204.329 -6.44408 0)
(204.665 -6.21981 0)
(204.97 -5.98373 0)
(205.288 -5.76913 0)
(205.576 -5.54391 0)
(205.875 -5.33959 0)
(206.146 -5.12594 0)
(206.427 -4.93227 0)
(206.681 -4.7305 0)
(206.942 -4.54763 0)
(207.177 -4.35773 0)
(207.418 -4.18565 0)
(207.635 -4.00752 0)
(207.86 -3.84617 0)
(208.064 -3.67999 0)
(208.278 -3.5294 0)
(208.476 -3.37539 0)
(208.68 -3.23546 0)
(208.869 -3.09309 0)
(209.058 -2.9634 0)
(209.224 -2.83184 0)
(209.379 -2.71263 0)
(209.495 -2.58911 0)
(209.528 -2.47354 0)
(209.617 -2.35655 0)
(209.622 -2.26518 0)
(209.697 -2.14694 0)
(209.732 -2.17829 0)
(316.953 173.775 0)
(274.322 2.61916 0)
(253.283 -3.57916 0)
(242.802 -3.74607 0)
(234.361 -5.9264 0)
(228.461 -7.56765 0)
(224.684 -9.17406 0)
(222.105 -10.2147 0)
(220.47 -11.1545 0)
(219.125 -11.8089 0)
(217.982 -12.3322 0)
(216.915 -12.7236 0)
(215.908 -13.0251 0)
(214.953 -13.2567 0)
(214.045 -13.436 0)
(213.181 -13.5746 0)
(212.353 -13.6812 0)
(211.553 -13.7637 0)
(210.772 -13.8303 0)
(210.004 -13.8889 0)
(209.25 -13.9442 0)
(208.513 -13.9952 0)
(207.8 -14.0396 0)
(207.113 -14.0769 0)
(206.451 -14.1099 0)
(205.813 -14.1409 0)
(205.197 -14.1707 0)
(204.605 -14.1964 0)
(204.037 -14.216 0)
(203.491 -14.2275 0)
(202.967 -14.2302 0)
(202.461 -14.2243 0)
(201.969 -14.2111 0)
(201.49 -14.193 0)
(201.02 -14.1724 0)
(200.558 -14.1512 0)
(200.101 -14.1304 0)
(199.651 -14.1101 0)
(199.206 -14.0908 0)
(198.766 -14.0727 0)
(198.334 -14.0566 0)
(197.909 -14.0425 0)
(197.495 -14.0301 0)
(197.093 -14.0188 0)
(196.706 -14.0082 0)
(196.334 -13.9978 0)
(195.98 -13.9874 0)
(195.644 -13.9765 0)
(195.329 -13.9648 0)
(195.035 -13.9513 0)
(194.765 -13.9354 0)
(194.52 -13.9158 0)
(194.302 -13.892 0)
(194.112 -13.862 0)
(193.95 -13.8265 0)
(193.819 -13.7824 0)
(193.722 -13.7342 0)
(193.668 -13.672 0)
(193.641 -13.6038 0)
(193.627 -13.5334 0)
(193.654 -13.441 0)
(193.716 -13.3411 0)
(193.809 -13.2306 0)
(193.933 -13.1081 0)
(194.086 -12.9739 0)
(194.266 -12.8278 0)
(194.473 -12.6696 0)
(194.704 -12.4996 0)
(194.959 -12.3181 0)
(195.235 -12.1253 0)
(195.53 -11.922 0)
(195.843 -11.7082 0)
(196.172 -11.4853 0)
(196.514 -11.2529 0)
(196.869 -11.0134 0)
(197.232 -10.7653 0)
(197.606 -10.5126 0)
(197.983 -10.2519 0)
(198.369 -9.98966 0)
(198.754 -9.71964 0)
(199.146 -9.45165 0)
(199.531 -9.1755 0)
(199.924 -8.90522 0)
(200.305 -8.62597 0)
(200.695 -8.3566 0)
(201.067 -8.07725 0)
(201.448 -7.81144 0)
(201.808 -7.53474 0)
(202.179 -7.27462 0)
(202.523 -7.00309 0)
(202.879 -6.75038 0)
(203.206 -6.48616 0)
(203.546 -6.24219 0)
(203.854 -5.98705 0)
(204.176 -5.75282 0)
(204.467 -5.5082 0)
(204.771 -5.28449 0)
(205.046 -5.05147 0)
(205.332 -4.83885 0)
(205.591 -4.61808 0)
(205.86 -4.41686 0)
(206.101 -4.20861 0)
(206.351 -4.01892 0)
(206.574 -3.82313 0)
(206.805 -3.64488 0)
(207.011 -3.46142 0)
(207.226 -3.29449 0)
(207.42 -3.12351 0)
(207.625 -2.96783 0)
(207.814 -2.80945 0)
(208.011 -2.6649 0)
(208.191 -2.51854 0)
(208.372 -2.38467 0)
(208.53 -2.24955 0)
(208.676 -2.12632 0)
(208.784 -1.99866 0)
(208.807 -1.88131 0)
(208.891 -1.76091 0)
(208.891 -1.66778 0)
(208.961 -1.54729 0)
(208.994 -1.57235 0)
(316.974 174.385 0)
(274.391 2.7083 0)
(253.406 -3.54736 0)
(242.911 -3.73473 0)
(234.436 -5.95265 0)
(228.506 -7.60987 0)
(224.715 -9.21698 0)
(222.131 -10.2546 0)
(220.492 -11.1923 0)
(219.145 -11.8445 0)
(217.999 -12.3664 0)
(216.931 -12.7567 0)
(215.921 -13.0574 0)
(214.964 -13.2886 0)
(214.055 -13.4675 0)
(213.189 -13.6059 0)
(212.359 -13.7123 0)
(211.558 -13.7949 0)
(210.775 -13.8619 0)
(210.006 -13.921 0)
(209.251 -13.9768 0)
(208.514 -14.0281 0)
(207.801 -14.0727 0)
(207.114 -14.1101 0)
(206.453 -14.1432 0)
(205.814 -14.1744 0)
(205.199 -14.2044 0)
(204.608 -14.2302 0)
(204.04 -14.25 0)
(203.495 -14.2616 0)
(202.971 -14.2645 0)
(202.465 -14.2589 0)
(201.974 -14.2463 0)
(201.494 -14.2289 0)
(201.024 -14.2092 0)
(200.562 -14.1891 0)
(200.105 -14.1694 0)
(199.654 -14.1504 0)
(199.208 -14.1323 0)
(198.768 -14.1155 0)
(198.335 -14.1005 0)
(197.911 -14.0874 0)
(197.496 -14.0758 0)
(197.094 -14.0651 0)
(196.706 -14.0547 0)
(196.334 -14.0444 0)
(195.98 -14.0337 0)
(195.643 -14.0223 0)
(195.327 -14.0096 0)
(195.032 -13.9947 0)
(194.76 -13.9767 0)
(194.514 -13.9546 0)
(194.294 -13.9277 0)
(194.101 -13.894 0)
(193.936 -13.8541 0)
(193.802 -13.8052 0)
(193.701 -13.7512 0)
(193.643 -13.6827 0)
(193.611 -13.6058 0)
(193.591 -13.5282 0)
(193.611 -13.4271 0)
(193.666 -13.3182 0)
(193.751 -13.1976 0)
(193.866 -13.0645 0)
(194.009 -12.9189 0)
(194.18 -12.7608 0)
(194.375 -12.5903 0)
(194.595 -12.4075 0)
(194.837 -12.2126 0)
(195.1 -12.0062 0)
(195.382 -11.7889 0)
(195.68 -11.5609 0)
(195.994 -11.3236 0)
(196.321 -11.0768 0)
(196.66 -10.8226 0)
(197.008 -10.5601 0)
(197.365 -10.2927 0)
(197.726 -10.0178 0)
(198.095 -9.74103 0)
(198.462 -9.45711 0)
(198.837 -9.17488 0)
(199.206 -8.88534 0)
(199.582 -8.60124 0)
(199.946 -8.30926 0)
(200.318 -8.02657 0)
(200.674 -7.73519 0)
(201.039 -7.45664 0)
(201.382 -7.16863 0)
(201.737 -6.89643 0)
(202.065 -6.61431 0)
(202.406 -6.35022 0)
(202.718 -6.07611 0)
(203.043 -5.8215 0)
(203.337 -5.55716 0)
(203.645 -5.31305 0)
(203.922 -5.0599 0)
(204.213 -4.82706 0)
(204.475 -4.58615 0)
(204.749 -4.36512 0)
(204.995 -4.13708 0)
(205.253 -3.92817 0)
(205.482 -3.71325 0)
(205.722 -3.51653 0)
(205.934 -3.31465 0)
(206.155 -3.13001 0)
(206.351 -2.94101 0)
(206.557 -2.76828 0)
(206.743 -2.59227 0)
(206.939 -2.43132 0)
(207.12 -2.26837 0)
(207.308 -2.11902 0)
(207.481 -1.96848 0)
(207.655 -1.83026 0)
(207.805 -1.69147 0)
(207.942 -1.56393 0)
(208.043 -1.4324 0)
(208.059 -1.313 0)
(208.137 -1.18905 0)
(208.131 -1.0942 0)
(208.197 -0.971339 0)
(208.227 -0.989979 0)
(316.892 174.791 0)
(274.443 2.80052 0)
(253.528 -3.51632 0)
(243.019 -3.72378 0)
(234.509 -5.97997 0)
(228.547 -7.65245 0)
(224.747 -9.25818 0)
(222.159 -10.2925 0)
(220.516 -11.2287 0)
(219.165 -11.8792 0)
(218.017 -12.4 0)
(216.946 -12.7893 0)
(215.934 -13.0893 0)
(214.975 -13.3199 0)
(214.065 -13.4985 0)
(213.198 -13.6366 0)
(212.367 -13.7429 0)
(211.563 -13.8257 0)
(210.779 -13.8931 0)
(210.009 -13.9528 0)
(209.252 -14.0091 0)
(208.515 -14.0607 0)
(207.801 -14.1055 0)
(207.114 -14.1429 0)
(206.453 -14.1762 0)
(205.815 -14.2076 0)
(205.2 -14.2378 0)
(204.608 -14.2638 0)
(204.041 -14.2836 0)
(203.496 -14.2953 0)
(202.973 -14.2985 0)
(202.467 -14.2934 0)
(201.976 -14.2813 0)
(201.496 -14.2647 0)
(201.026 -14.2458 0)
(200.563 -14.2268 0)
(200.106 -14.2083 0)
(199.654 -14.1905 0)
(199.208 -14.1736 0)
(198.768 -14.1581 0)
(198.334 -14.1443 0)
(197.909 -14.1322 0)
(197.494 -14.1214 0)
(197.092 -14.1112 0)
(196.704 -14.1012 0)
(196.331 -14.0909 0)
(195.975 -14.08 0)
(195.638 -14.068 0)
(195.321 -14.0542 0)
(195.025 -14.0378 0)
(194.752 -14.0179 0)
(194.503 -13.9932 0)
(194.281 -13.9632 0)
(194.086 -13.9256 0)
(193.918 -13.8813 0)
(193.781 -13.8274 0)
(193.677 -13.7674 0)
(193.614 -13.6925 0)
(193.577 -13.6079 0)
(193.552 -13.5212 0)
(193.565 -13.4125 0)
(193.614 -13.2939 0)
(193.691 -13.1627 0)
(193.798 -13.0186 0)
(193.932 -12.8616 0)
(194.092 -12.6914 0)
(194.277 -12.5081 0)
(194.486 -12.3122 0)
(194.716 -12.1037 0)
(194.966 -11.8834 0)
(195.235 -11.6519 0)
(195.519 -11.4095 0)
(195.819 -11.1576 0)
(196.131 -10.8961 0)
(196.455 -10.6272 0)
(196.786 -10.35 0)
(197.127 -10.0678 0)
(197.472 -9.77845 0)
(197.824 -9.48713 0)
(198.175 -9.18924 0)
(198.533 -8.89279 0)
(198.884 -8.58987 0)
(199.243 -8.29203 0)
(199.59 -7.98738 0)
(199.946 -7.69155 0)
(200.284 -7.38829 0)
(200.632 -7.09729 0)
(200.959 -6.79823 0)
(201.297 -6.51434 0)
(201.61 -6.22199 0)
(201.934 -5.94702 0)
(202.231 -5.66349 0)
(202.54 -5.39882 0)
(202.819 -5.12585 0)
(203.112 -4.87251 0)
(203.375 -4.61147 0)
(203.652 -4.3702 0)
(203.9 -4.12211 0)
(204.162 -3.89339 0)
(204.395 -3.65882 0)
(204.64 -3.44293 0)
(204.857 -3.22205 0)
(205.085 -3.01901 0)
(205.286 -2.81172 0)
(205.497 -2.62135 0)
(205.682 -2.42746 0)
(205.878 -2.24953 0)
(206.054 -2.06908 0)
(206.242 -1.90341 0)
(206.414 -1.73641 0)
(206.594 -1.58275 0)
(206.759 -1.42851 0)
(206.924 -1.28637 0)
(207.066 -1.14439 0)
(207.193 -1.01285 0)
(207.288 -0.878052 0)
(207.297 -0.75691 0)
(207.369 -0.629672 0)
(207.358 -0.533521 0)
(207.417 -0.408585 0)
(207.444 -0.420734 0)
(316.835 175.257 0)
(274.476 2.89727 0)
(253.649 -3.48356 0)
(243.128 -3.71306 0)
(234.582 -6.00629 0)
(228.59 -7.69321 0)
(224.777 -9.29917 0)
(222.183 -10.3307 0)
(220.537 -11.2652 0)
(219.184 -11.9136 0)
(218.034 -12.433 0)
(216.96 -12.8214 0)
(215.947 -13.1207 0)
(214.986 -13.3509 0)
(214.074 -13.5291 0)
(213.206 -13.667 0)
(212.373 -13.7732 0)
(211.568 -13.8562 0)
(210.783 -13.924 0)
(210.011 -13.9843 0)
(209.254 -14.041 0)
(208.516 -14.093 0)
(207.803 -14.1379 0)
(207.116 -14.1755 0)
(206.454 -14.209 0)
(205.817 -14.2406 0)
(205.202 -14.271 0)
(204.611 -14.2971 0)
(204.044 -14.3171 0)
(203.5 -14.329 0)
(202.977 -14.3324 0)
(202.471 -14.3277 0)
(201.98 -14.3162 0)
(201.501 -14.3003 0)
(201.03 -14.2825 0)
(200.567 -14.2645 0)
(200.11 -14.2471 0)
(199.658 -14.2306 0)
(199.211 -14.2151 0)
(198.77 -14.2008 0)
(198.336 -14.1881 0)
(197.911 -14.1771 0)
(197.496 -14.1671 0)
(197.093 -14.1575 0)
(196.704 -14.1478 0)
(196.331 -14.1377 0)
(195.975 -14.1266 0)
(195.637 -14.114 0)
(195.318 -14.0994 0)
(195.02 -14.0816 0)
(194.745 -14.0599 0)
(194.495 -14.0327 0)
(194.27 -13.9997 0)
(194.073 -13.9585 0)
(193.901 -13.91 0)
(193.761 -13.8515 0)
(193.652 -13.7857 0)
(193.584 -13.705 0)
(193.541 -13.6132 0)
(193.509 -13.5171 0)
(193.514 -13.4017 0)
(193.554 -13.2744 0)
(193.623 -13.1337 0)
(193.72 -12.9793 0)
(193.843 -12.8115 0)
(193.992 -12.63 0)
(194.165 -12.435 0)
(194.36 -12.2268 0)
(194.577 -12.0058 0)
(194.813 -11.7726 0)
(195.066 -11.5278 0)
(195.335 -11.2721 0)
(195.619 -11.0066 0)
(195.914 -10.7315 0)
(196.221 -10.4489 0)
(196.535 -10.1581 0)
(196.859 -9.8622 0)
(197.185 -9.55946 0)
(197.519 -9.25459 0)
(197.852 -8.94367 0)
(198.192 -8.63394 0)
(198.525 -8.31849 0)
(198.866 -8.00777 0)
(199.195 -7.69122 0)
(199.533 -7.38299 0)
(199.854 -7.0685 0)
(200.185 -6.76565 0)
(200.495 -6.45604 0)
(200.816 -6.16091 0)
(201.112 -5.85868 0)
(201.421 -5.57313 0)
(201.702 -5.28037 0)
(201.996 -5.00579 0)
(202.26 -4.72423 0)
(202.539 -4.46166 0)
(202.788 -4.19266 0)
(203.052 -3.94284 0)
(203.287 -3.68738 0)
(203.536 -3.45079 0)
(203.757 -3.20941 0)
(203.99 -2.98628 0)
(204.196 -2.75916 0)
(204.413 -2.54949 0)
(204.603 -2.33649 0)
(204.804 -2.1401 0)
(204.98 -1.941 0)
(205.166 -1.75758 0)
(205.334 -1.57242 0)
(205.513 -1.40176 0)
(205.677 -1.23045 0)
(205.849 -1.07224 0)
(206.006 -0.914065 0)
(206.164 -0.767817 0)
(206.299 -0.622487 0)
(206.416 -0.486706 0)
(206.505 -0.34863 0)
(206.508 -0.225308 0)
(206.574 -0.0946569 0)
(206.557 0.00296736 0)
(206.611 0.130077 0)
(206.635 0.124114 0)
(316.743 175.701 0)
(274.487 3.00027 0)
(253.771 -3.45206 0)
(243.235 -3.70269 0)
(234.653 -6.03372 0)
(228.629 -7.7344 0)
(224.807 -9.3386 0)
(222.209 -10.3672 0)
(220.56 -11.3005 0)
(219.203 -11.9472 0)
(218.05 -12.4656 0)
(216.975 -12.8529 0)
(215.96 -13.1516 0)
(214.997 -13.3813 0)
(214.084 -13.5592 0)
(213.214 -13.6969 0)
(212.38 -13.8032 0)
(211.573 -13.8863 0)
(210.786 -13.9546 0)
(210.013 -14.0154 0)
(209.255 -14.0727 0)
(208.516 -14.125 0)
(207.803 -14.1701 0)
(207.116 -14.2078 0)
(206.454 -14.2414 0)
(205.817 -14.2733 0)
(205.203 -14.3039 0)
(204.612 -14.3302 0)
(204.045 -14.3503 0)
(203.501 -14.3624 0)
(202.979 -14.3661 0)
(202.473 -14.3618 0)
(201.982 -14.3509 0)
(201.503 -14.3358 0)
(201.032 -14.3189 0)
(200.569 -14.302 0)
(200.111 -14.2859 0)
(199.658 -14.2706 0)
(199.211 -14.2564 0)
(198.77 -14.2434 0)
(198.335 -14.2319 0)
(197.909 -14.2219 0)
(197.494 -14.2127 0)
(197.091 -14.2037 0)
(196.701 -14.1944 0)
(196.328 -14.1843 0)
(195.97 -14.1731 0)
(195.631 -14.16 0)
(195.311 -14.1444 0)
(195.012 -14.1253 0)
(194.735 -14.1016 0)
(194.483 -14.0719 0)
(194.256 -14.0359 0)
(194.055 -13.991 0)
(193.88 -13.9382 0)
(193.736 -13.8749 0)
(193.623 -13.8033 0)
(193.55 -13.7167 0)
(193.502 -13.6181 0)
(193.463 -13.5111 0)
(193.46 -13.3907 0)
(193.493 -13.2529 0)
(193.553 -13.1021 0)
(193.64 -12.9375 0)
(193.753 -12.7586 0)
(193.891 -12.5655 0)
(194.052 -12.3584 0)
(194.235 -12.1378 0)
(194.438 -11.9038 0)
(194.66 -11.6574 0)
(194.899 -11.3992 0)
(195.152 -11.1298 0)
(195.42 -10.8505 0)
(195.699 -10.5616 0)
(195.989 -10.265 0)
(196.287 -9.96041 0)
(196.593 -9.65063 0)
(196.902 -9.33432 0)
(197.218 -9.01581 0)
(197.533 -8.69177 0)
(197.855 -8.36878 0)
(198.17 -8.04077 0)
(198.493 -7.71725 0)
(198.804 -7.38884 0)
(199.124 -7.06839 0)
(199.427 -6.7428 0)
(199.741 -6.42839 0)
(200.033 -6.10847 0)
(200.338 -5.8025 0)
(200.617 -5.49077 0)
(200.909 -5.19514 0)
(201.174 -4.89365 0)
(201.452 -4.60976 0)
(201.701 -4.32023 0)
(201.965 -4.04912 0)
(202.2 -3.77285 0)
(202.449 -3.51522 0)
(202.67 -3.25314 0)
(202.906 -3.00943 0)
(203.114 -2.76204 0)
(203.335 -2.53243 0)
(203.529 -2.29983 0)
(203.734 -2.08428 0)
(203.913 -1.8663 0)
(204.103 -1.66456 0)
(204.268 -1.46093 0)
(204.445 -1.27265 0)
(204.603 -1.08335 0)
(204.773 -0.908244 0)
(204.929 -0.733113 0)
(205.093 -0.570798 0)
(205.242 -0.409085 0)
(205.392 -0.259098 0)
(205.519 -0.110852 0)
(205.624 0.0289511 0)
(205.709 0.169999 0)
(205.705 0.295324 0)
(205.766 0.42915 0)
(205.743 0.527897 0)
(205.791 0.656679 0)
(205.811 0.657177 0)
(316.6 176.135 0)
(274.471 3.11395 0)
(253.892 -3.41953 0)
(243.343 -3.69251 0)
(234.723 -6.0602 0)
(228.669 -7.77375 0)
(224.835 -9.37777 0)
(222.232 -10.404 0)
(220.58 -11.3357 0)
(219.221 -11.9805 0)
(218.067 -12.4976 0)
(216.989 -12.8841 0)
(215.972 -13.1822 0)
(215.007 -13.4114 0)
(214.093 -13.5891 0)
(213.221 -13.7266 0)
(212.386 -13.8328 0)
(211.578 -13.9162 0)
(210.789 -13.9849 0)
(210.015 -14.0463 0)
(209.256 -14.1041 0)
(208.518 -14.1567 0)
(207.804 -14.202 0)
(207.117 -14.2398 0)
(206.456 -14.2736 0)
(205.819 -14.3058 0)
(205.205 -14.3367 0)
(204.615 -14.3632 0)
(204.049 -14.3834 0)
(203.505 -14.3956 0)
(202.983 -14.3996 0)
(202.478 -14.3958 0)
(201.987 -14.3856 0)
(201.507 -14.3713 0)
(201.037 -14.3553 0)