/*--------------------------------*- C++ -*----------------------------------*\
| =========                 |                                                 |
| \\      /  F ield         | OpenFOAM: The Open Source CFD Toolbox           |
|  \\    /   O peration     | Version:  2412                                  |
|   \\  /    A nd           | Website:  www.openfoam.com                      |
|    \\/     M anipulation  |                                                 |
\*---------------------------------------------------------------------------*/
FoamFile
{
    version     2.0;
    format      ascii;
    arch        "LSB;label=32;scalar=64";
    class       volScalarField;
    location    "0.088";
    object      T;
}
// * * * * * * * * * * * * * * * * * * * * * * * * * * * * * * * * * * * * * //

dimensions      [0 0 0 1 0 0 0];

internalField   nonuniform List<scalar> 
9831
(
162.168
210.029
161.903
209.982
218.175
218.145
218.309
218.598
219.06
219.558
220.037
220.479
220.872
221.212
221.503
221.759
221.989
222.201
222.399
222.584
222.758
222.921
223.076
223.222
223.361
223.493
223.621
223.747
223.871
223.995
224.116
224.234
224.349
224.461
224.569
224.675
224.777
224.878
224.976
225.071
225.164
225.255
225.342
225.427
225.508
225.586
225.66
225.73
225.796
225.858
225.915
225.967
161.687
209.935
218.15
218.117
218.289
218.588
219.058
219.558
220.037
220.479
220.871
221.21
221.502
221.757
221.988
222.2
222.398
222.583
222.757
222.921
223.076
223.222
223.361
223.493
223.622
223.748
223.873
223.996
224.118
224.236
224.351
224.462
224.571
224.676
224.779
224.879
224.977
225.072
225.165
225.255
225.343
225.427
225.508
225.586
225.66
225.73
225.796
225.858
225.915
225.967
226.013
226.055
161.446
209.891
218.125
218.088
218.269
218.578
219.056
219.557
220.037
220.478
220.87
221.209
221.5
221.756
221.986
222.199
222.397
222.582
222.756
222.92
223.075
223.222
223.361
223.494
223.622
223.749
223.874
223.998
224.12
224.238
224.353
224.464
224.572
224.677
224.78
224.88
224.978
225.073
225.166
225.256
225.343
225.427
225.508
225.586
225.659
225.73
225.796
225.857
225.914
225.966
226.013
226.054
226.09
226.12
161.23
209.85
218.099
218.06
218.249
218.569
219.053
219.557
220.037
220.478
220.869
221.208
221.499
221.754
221.985
222.198
222.396
222.581
222.755
222.92
223.075
223.222
223.361
223.494
223.623
223.75
223.876
224
224.121
224.24
224.354
224.465
224.573
224.679
224.781
224.881
224.979
225.074
225.167
225.257
225.344
225.428
225.508
225.586
225.659
225.729
225.795
225.857
225.914
225.966
226.013
226.054
226.09
226.12
226.145
226.164
226.176
226.183
226.183
226.175
226.162
226.142
226.117
226.085
226.047
226.003
225.953
225.899
225.839
225.775
225.706
225.634
225.558
225.479
225.397
225.313
225.227
225.139
225.049
224.959
224.868
224.777
224.686
224.595
224.504
224.414
224.325
224.237
224.15
224.065
223.981
223.899
223.818
223.74
223.663
223.588
223.515
223.444
223.376
223.309
223.244
223.182
223.121
223.062
223.006
222.95
222.897
222.846
222.796
222.749
222.704
222.661
222.621
222.582
222.547
222.512
222.479
222.453
222.425
161.032
209.812
218.073
218.031
218.23
218.56
219.051
219.557
220.036
220.477
220.868
221.206
221.497
221.753
221.983
222.196
222.395
222.58
222.755
222.919
223.075
223.222
223.361
223.494
223.624
223.751
223.877
224.001
224.123
224.241
224.356
224.467
224.575
224.68
224.782
224.882
224.98
225.075
225.168
225.257
225.344
225.428
225.508
225.585
225.659
225.729
225.795
225.856
225.913
225.965
226.012
226.054
226.09
226.121
226.146
226.165
226.178
226.185
226.185
226.179
226.166
226.148
226.123
226.092
226.055
226.013
225.965
225.912
225.855
225.792
225.726
225.656
225.582
225.506
225.426
225.345
225.261
225.176
225.089
225.002
224.914
224.826
224.738
224.65
224.562
224.475
224.389
224.304
224.221
224.138
224.057
223.978
223.901
223.825
223.751
223.679
223.609
223.541
223.475
223.41
223.348
223.288
223.23
223.174
223.119
223.066
223.015
222.966
222.918
222.873
222.83
222.789
222.75
222.713
222.679
222.646
222.614
222.589
222.563
222.556
222.501
160.826
209.777
218.047
218.002
218.211
218.552
219.05
219.557
220.036
220.477
220.867
221.205
221.496
221.751
221.982
222.195
222.394
222.579
222.754
222.918
223.074
223.221
223.361
223.495
223.625
223.752
223.878
224.003
224.125
224.243
224.357
224.469
224.576
224.681
224.783
224.883
224.981
225.076
225.168
225.258
225.345
225.428
225.508
225.585
225.659
225.729
225.795
225.856
225.913
225.965
226.012
226.054
226.091
226.121
226.147
226.166
226.18
226.187
226.189
226.183
226.171
226.154
226.13
226.101
226.066
226.025
225.979
225.928
225.872
225.812
225.748
225.68
225.609
225.535
225.458
225.379
225.298
225.216
225.133
225.048
224.963
224.878
224.793
224.708
224.624
224.54
224.457
224.376
224.295
224.216
224.138
224.062
223.987
223.914
223.843
223.774
223.707
223.641
223.578
223.516
223.457
223.399
223.343
223.289
223.237
223.186
223.137
223.09
223.044
223.001
222.959
222.92
222.884
222.849
222.816
222.784
222.751
222.726
222.703
222.705
222.655
160.637
209.743
218.021
217.974
218.193
218.543
219.048
219.556
220.036
220.476
220.866
221.204
221.494
221.75
221.981
222.194
222.393
222.578
222.753
222.918
223.074
223.221
223.361
223.495
223.625
223.753
223.88
224.004
224.126
224.244
224.359
224.47
224.578
224.682
224.785
224.884
224.982
225.077
225.169
225.259
225.345
225.428
225.508
225.585
225.659
225.729
225.794
225.856
225.913
225.965
226.012
226.054
226.091
226.122
226.148
226.168
226.182
226.191
226.193
226.188
226.177
226.161
226.139
226.111
226.077
226.038
225.994
225.945
225.891
225.833
225.771
225.706
225.637
225.566
225.492
225.416
225.338
225.259
225.179
225.098
225.016
224.934
224.852
224.771
224.689
224.609
224.529
224.451
224.373
224.297
224.223
224.15
224.078
224.008
223.94
223.874
223.809
223.746
223.686
223.627
223.57
223.514
223.461
223.409
223.359
223.31
223.264
223.218
223.175
223.133
223.094
223.057
223.022
222.988
222.956
222.926
222.893
222.87
222.851
222.856
222.81
160.475
209.712
217.996
217.945
218.174
218.535
219.046
219.556
220.035
220.475
220.865
221.202
221.493
221.748
221.979
222.193
222.391
222.577
222.752
222.917
223.073
223.221
223.361
223.495
223.626
223.754
223.881
224.006
224.128
224.246
224.361
224.472
224.579
224.684
224.786
224.885
224.983
225.078
225.17
225.259
225.345
225.429
225.509
225.585
225.659
225.728
225.794
225.855
225.913
225.965
226.012
226.055
226.092
226.124
226.15
226.17
226.185
226.194
226.197
226.193
226.184
226.169
226.148
226.122
226.09
226.052
226.01
225.963
225.912
225.856
225.797
225.734
225.668
225.6
225.529
225.456
225.381
225.305
225.228
225.15
225.072
224.993
224.915
224.836
224.758
224.681
224.605
224.53
224.456
224.383
224.311
224.241
224.173
224.106
224.041
223.977
223.915
223.856
223.797
223.741
223.686
223.634
223.583
223.533
223.485
223.439
223.394
223.351
223.309
223.27
223.232
223.197
223.163
223.131
223.1
223.07
223.039
223.018
223.002
223.009
222.964
160.306
209.686
217.97
217.917
218.156
218.528
219.045
219.555
220.034
220.474
220.864
221.201
221.492
221.747
221.978
222.192
222.39
222.577
222.751
222.917
223.073
223.221
223.361
223.496
223.627
223.755
223.882
224.007
224.129
224.248
224.362
224.473
224.58
224.685
224.787
224.886
224.984
225.078
225.171
225.26
225.346
225.429
225.509
225.585
225.658
225.728
225.794
225.855
225.912
225.965
226.013
226.055
226.093
226.125
226.152
226.173
226.189
226.198
226.202
226.2
226.192
226.178
226.158
226.133
226.103
226.068
226.028
225.983
225.934
225.881
225.824
225.764
225.701
225.636
225.568
225.498
225.426
225.354
225.28
225.205
225.13
225.055
224.98
224.905
224.831
224.757
224.684
224.612
224.541
224.472
224.404
224.337
224.271
224.208
224.145
224.085
224.026
223.969
223.913
223.859
223.807
223.757
223.708
223.661
223.616
223.571
223.529
223.487
223.448
223.41
223.374
223.341
223.309
223.278
223.247
223.219
223.19
223.172
223.158
223.165
223.121
160.141
209.662
217.944
217.888
218.138
218.521
219.043
219.555
220.034
220.474
220.863
221.2
221.49
221.746
221.977
222.19
222.389
222.576
222.751
222.916
223.072
223.22
223.361
223.496
223.627
223.757
223.884
224.009
224.131
224.249
224.364
224.474
224.582
224.686
224.788
224.887
224.984
225.079
225.171
225.26
225.346
225.429
225.509
225.585
225.658
225.728
225.794
225.855
225.912
225.965
226.013
226.056
226.094
226.127
226.154
226.176
226.192
226.203
226.208
226.207
226.2
226.187
226.17
226.147
226.118
226.085
226.047
226.005
225.958
225.908
225.854
225.797
225.737
225.674
225.609
225.543
225.475
225.405
225.335
225.264
225.192
225.121
225.049
224.978
224.907
224.837
224.767
224.699
224.631
224.565
224.5
224.436
224.374
224.313
224.254
224.196
224.14
224.086
224.033
223.982
223.932
223.884
223.838
223.793
223.749
223.707
223.667
223.627
223.59
223.554
223.52
223.488
223.458
223.428
223.398
223.371
223.345
223.329
223.317
223.325
223.281
160.003
209.642
217.919
217.859
218.119
218.514
219.042
219.554
220.033
220.473
220.862
221.199
221.489
221.744
221.976
222.189
222.388
222.575
222.75
222.915
223.072
223.22
223.361
223.496
223.628
223.758
223.885
224.01
224.132
224.251
224.365
224.476
224.583
224.687
224.789
224.888
224.985
225.08
225.172
225.261
225.346
225.429
225.509
225.585
225.658
225.728
225.793
225.855
225.912
225.965
226.013
226.057
226.095
226.129
226.157
226.179
226.196
226.208
226.214
226.214
226.209
226.198
226.182
226.161
226.134
226.103
226.068
226.028
225.984
225.936
225.885
225.831
225.774
225.715
225.653
225.59
225.525
225.459
225.392
225.325
225.257
225.189
225.121
225.053
224.986
224.919
224.853
224.788
224.724
224.661
224.599
224.539
224.48
224.422
224.366
224.311
224.258
224.206
224.156
224.108
224.061
224.015
223.971
223.928
223.887
223.847
223.808
223.771
223.736
223.702
223.67
223.639
223.61
223.581
223.552
223.528
223.504
223.491
223.48
223.487
223.444
159.865
209.625
217.894
217.83
218.101
218.508
219.041
219.553
220.033
220.472
220.861
221.197
221.488
221.743
221.974
222.188
222.387
222.574
222.749
222.915
223.072
223.22
223.361
223.497
223.629
223.759
223.886
224.012
224.134
224.252
224.367
224.477
224.584
224.688
224.789
224.889
224.986
225.081
225.172
225.261
225.347
225.429
225.509
225.585
225.658
225.727
225.793
225.855
225.912
225.966
226.014
226.058
226.097
226.131
226.16
226.183
226.201
226.214
226.221
226.223
226.218
226.209
226.195
226.176
226.152
226.123
226.09
226.052
226.011
225.966
225.918
225.867
225.813
225.757
225.699
225.64
225.578
225.516
225.453
225.389
225.325
225.26
225.196
225.132
225.068
225.005
224.943
224.881
224.82
224.761
224.702
224.645
224.589
224.535
224.481
224.43
224.379
224.33
224.283
224.237
224.193
224.149
224.108
224.067
224.028
223.99
223.954
223.918
223.885
223.853
223.822
223.793
223.765
223.737
223.71
223.688
223.667
223.655
223.645
223.652
223.61
159.742
209.614
217.869
217.801
218.083
218.502
219.04
219.553
220.032
220.472
220.86
221.196
221.486
221.742
221.973
222.187
222.386
222.573
222.748
222.914
223.071
223.22
223.361
223.497
223.629
223.76
223.888
224.013
224.135
224.254
224.368
224.478
224.585
224.689
224.79
224.89
224.987
225.081
225.173
225.262
225.347
225.429
225.509
225.585
225.658
225.727
225.793
225.855
225.913
225.966
226.015
226.059
226.099
226.133
226.163
226.187
226.206
226.22
226.229
226.232
226.229
226.221
226.209
226.192
226.17
226.143
226.113
226.078
226.04
225.998
225.953
225.905
225.855
225.802
225.748
225.691
225.634
225.575
225.516
225.456
225.395
225.334
225.274
225.213
225.153
225.094
225.035
224.977
224.92
224.864
224.809
224.755
224.702
224.651
224.6
224.552
224.504
224.458
224.413
224.37
224.328
224.287
224.248
224.21
224.173
224.137
224.102
224.069
224.037
224.007
223.978
223.951
223.924
223.897
223.872
223.852
223.832
223.822
223.813
223.82
223.778
159.633
209.608
217.845
217.772
218.065
218.496
219.039
219.552
220.032
220.471
220.859
221.195
221.485
221.741
221.972
222.186
222.385
222.572
222.748
222.914
223.071
223.219
223.361
223.497
223.63
223.761
223.889
224.014
224.137
224.255
224.369
224.48
224.586
224.69
224.791
224.89
224.987
225.082
225.174
225.262
225.347
225.429
225.509
225.585
225.658
225.727
225.793
225.855
225.913
225.966
226.016
226.061
226.101
226.136
226.166
226.191
226.211
226.226
226.237
226.241
226.24
226.234
226.224
226.209
226.189
226.165
226.137
226.105
226.07
226.031
225.99
225.945
225.898
225.849
225.798
225.746
225.692
225.637
225.581
225.525
225.468
225.412
225.355
225.298
225.242
225.186
225.131
225.076
225.023
224.97
224.918
224.868
224.818
224.77
224.723
224.677
224.632
224.589
224.547
224.506
224.467
224.428
224.391
224.355
224.321
224.287
224.254
224.223
224.193
224.165
224.137
224.111
224.086
224.061
224.037
224.019
224.002
223.993
223.985
223.991
223.95
159.536
209.607
217.821
217.742
218.046
218.491
219.038
219.552
220.031
220.47
220.859
221.194
221.484
221.739
221.971
222.185
222.385
222.571
222.747
222.913
223.07
223.219
223.361
223.498
223.631
223.762
223.89
224.016
224.138
224.257
224.371
224.481
224.587
224.691
224.792
224.891
224.988
225.083
225.174
225.262
225.347
225.429
225.508
225.584
225.657
225.727
225.793
225.855
225.913
225.967
226.017
226.062
226.103
226.139
226.17
226.196
226.217
226.233
226.245
226.251
226.252
226.248
226.24
226.227
226.21
226.188
226.163
226.134
226.102
226.066
226.028
225.987
225.943
225.898
225.851
225.802
225.752
225.701
225.649
225.597
225.544
225.491
225.438
225.385
225.333
225.281
225.229
225.179
225.128
225.079
225.031
224.984
224.937
224.892
224.848
224.805
224.764
224.723
224.684
224.646
224.609
224.573
224.538
224.504
224.472
224.44
224.409
224.38
224.352
224.325
224.3
224.275
224.251
224.227
224.205
224.19
224.174
224.167
224.159
224.165
224.124
159.437
209.611
217.798
217.712
218.027
218.487
219.037
219.551
220.031
220.47
220.858
221.193
221.483
221.738
221.97
222.184
222.384
222.57
222.746
222.913
223.07
223.219
223.361
223.498
223.632
223.763
223.891
224.017
224.14
224.258
224.372
224.482
224.588
224.692
224.793
224.892
224.989
225.083
225.174
225.263
225.347
225.429
225.508
225.584
225.657
225.727
225.793
225.855
225.913
225.968
226.018
226.064
226.105
226.142
226.174
226.201
226.223
226.241
226.254
226.262
226.264
226.262
226.256
226.246
226.231
226.213
226.19
226.164
226.135
226.103
226.068
226.03
225.991
225.949
225.906
225.861
225.815
225.768
225.72
225.671
225.623
225.574
225.525
225.476
225.427
225.379
225.331
225.284
225.237
225.192
225.147
225.103
225.06
225.018
224.977
224.937
224.898
224.86
224.824
224.788
224.754
224.72
224.688
224.656
224.626
224.596
224.568
224.54
224.514
224.489
224.465
224.442
224.419
224.397
224.377
224.364
224.35
224.344
224.336
224.342
224.302
159.372
209.621
217.775
217.682
218.008
218.483
219.036
219.55
220.031
220.469
220.857
221.192
221.481
221.737
221.969
222.183
222.383
222.57
222.746
222.912
223.069
223.219
223.361
223.498
223.632
223.764
223.892
224.019
224.141
224.259
224.373
224.483
224.589
224.692
224.793
224.892
224.989
225.084
225.175
225.263
225.348
225.429
225.508
225.584
225.657
225.726
225.792
225.855
225.914
225.968
226.019
226.066
226.108
226.145
226.178
226.206
226.23
226.248
226.263
226.273
226.278
226.278
226.274
226.266
226.254
226.238
226.218
226.195
226.169
226.141
226.109
226.075
226.039
226.001
225.962
225.921
225.879
225.836
225.792
225.748
225.703
225.658
225.613
225.568
225.523
225.479
225.435
225.392
225.349
225.307
225.265
225.225
225.185
225.146
225.108
225.071
225.035
225
224.967
224.934
224.902
224.871
224.841
224.811
224.783
224.756
224.729
224.704
224.679
224.656
224.634
224.612
224.59
224.57
224.552
224.541
224.528
224.524
224.516
224.521
224.483
159.315
209.638
217.752
217.652
217.99
218.479
219.035
219.549
220.03
220.469
220.856
221.191
221.48
221.736
221.968
222.182
222.382
222.569
222.745
222.911
223.069
223.218
223.361
223.499
223.633
223.765
223.894
224.02
224.142
224.261
224.374
224.484
224.59
224.693
224.794
224.893
224.99
225.084
225.175
225.263
225.348
225.429
225.508
225.584
225.656
225.726
225.792
225.855
225.914
225.969
226.02
226.067
226.11
226.148
226.182
226.212
226.236
226.257
226.273
226.284
226.291
226.294
226.292
226.286
226.277
226.264
226.248
226.228
226.206
226.18
226.152
226.122
226.09
226.056
226.021
225.984
225.946
225.907
225.867
225.827
225.786
225.746
225.705
225.664
225.623
225.582
225.542
225.502
225.463
225.425
225.387
225.35
225.313
225.278
225.243
225.209
225.176
225.144
225.112
225.082
225.053
225.024
224.996
224.969
224.943
224.918
224.893
224.87
224.847
224.826
224.805
224.784
224.764
224.746
224.73
224.72
224.709
224.706
224.699
224.703
224.667
159.217
209.659
217.728
217.623
217.972
218.474
219.034
219.549
220.03
220.468
220.855
221.19
221.479
221.735
221.966
222.181
222.381
222.568
222.744
222.911
223.069
223.218
223.361
223.499
223.634
223.765
223.895
224.021
224.144
224.262
224.376
224.485
224.591
224.694
224.795
224.894
224.991
225.085
225.176
225.263
225.348
225.429
225.508
225.583
225.656
225.726
225.792
225.855
225.915
225.97
226.022
226.069
226.113
226.152
226.187
226.218
226.244
226.265
226.283
226.297
226.306
226.31
226.311
226.308
226.301
226.291
226.278
226.262
226.243
226.221
226.197
226.17
226.142
226.112
226.081
226.048
226.014
225.98
225.944
225.908
225.871
225.835
225.798
225.761
225.724
225.688
225.651
225.615
225.58
225.545
225.511
225.477
225.444
225.411
225.38
225.349
225.319
225.289
225.261
225.233
225.207
225.18
225.155
225.13
225.106
225.083
225.06
225.039
225.018
224.998
224.979
224.96
224.942
224.926
224.91
224.902
224.893
224.892
224.886
224.889
224.855
159.217
209.688
217.702
217.594
217.954
218.47
219.033
219.548
220.029
220.468
220.854
221.189
221.478
221.733
221.965
222.18
222.38
222.567
222.744
222.91
223.068
223.218
223.361
223.499
223.634
223.766
223.896
224.022
224.145
224.263
224.377
224.486
224.592
224.694
224.795
224.894
224.991
225.085
225.176
225.263
225.348
225.429
225.507
225.583
225.656
225.726
225.792
225.855
225.915
225.971
226.023
226.072
226.116
226.156
226.192
226.224
226.251
226.275
226.294
226.309
226.32
226.328
226.331
226.331
226.327
226.32
226.31
226.297
226.281
226.263
226.243
226.221
226.196
226.171
226.143
226.115
226.085
226.055
226.023
225.992
225.959
225.927
225.894
225.861
225.829
225.796
225.764
225.731
225.7
225.668
225.637
225.607
225.577
225.548
225.52
225.492
225.465
225.438
225.412
225.387
225.363
225.339
225.316
225.294
225.272
225.251
225.23
225.211
225.192
225.174
225.156
225.138
225.122
225.108
225.094
225.087
225.08
225.081
225.075
225.078
225.046
159.206
209.725
217.674
217.565
217.937
218.466
219.032
219.547
220.029
220.467
220.854
221.188
221.477
221.732
221.964
222.179
222.379
222.566
222.743
222.91
223.068
223.218
223.361
223.5
223.635
223.767
223.897
224.024
224.146
224.264
224.378
224.487
224.592
224.695
224.796
224.895
224.992
225.086
225.176
225.263
225.347
225.429
225.507
225.583
225.655
225.725
225.792
225.856
225.916
225.972
226.025
226.074
226.119
226.16
226.197
226.23
226.259
226.284
226.305
226.323
226.336
226.345
226.351
226.354
226.353
226.349
226.342
226.333
226.321
226.307
226.29
226.272
226.252
226.23
226.207
226.182
226.157
226.131
226.104
226.077
226.049
226.02
225.992
225.963
225.935
225.906
225.877
225.849
225.821
225.794
225.766
225.74
225.713
225.687
225.662
225.637
225.613
225.589
225.566
225.544
225.522
225.501
225.48
225.46
225.441
225.422
225.403
225.386
225.369
225.352
225.336
225.32
225.305
225.292
225.28
225.275
225.269
225.271
225.266
225.269
225.239
159.146
209.766
217.645
217.536
217.921
218.462
219.03
219.546
220.028
220.466
220.853
221.187
221.476
221.731
221.963
222.178
222.378
222.566
222.742
222.909
223.067
223.218
223.361
223.5
223.636
223.768
223.898
224.025
224.147
224.265
224.379
224.488
224.593
224.696
224.797
224.896
224.992
225.086
225.176
225.263
225.347
225.428
225.507
225.582
225.655
225.725
225.792
225.856
225.916
225.973
226.027
226.076
226.122
226.164
226.202
226.237
226.267
226.294
226.317
226.336
226.352
226.364
226.373
226.378
226.38
226.379
226.376
226.37
226.362
226.352
226.339
226.325
226.309
226.291
226.273
226.253
226.232
226.21
226.187
226.164
226.141
226.117
226.092
226.068
226.043
226.019
225.994
225.97
225.946
225.922
225.898
225.875
225.852
225.829
225.807
225.785
225.764
225.743
225.723
225.703
225.684
225.665
225.647
225.629
225.611
225.595
225.578
225.563
225.547
225.532
225.518
225.503
225.49
225.479
225.469
225.466
225.462
225.464
225.46
225.462
225.435
159.179
209.814
217.615
217.508
217.905
218.458
219.029
219.546
220.028
220.466
220.852
221.186
221.475
221.73
221.962
222.177
222.377
222.565
222.741
222.909
223.067
223.217
223.361
223.5
223.636
223.769
223.899
224.026
224.148
224.266
224.38
224.489
224.594
224.696
224.797
224.896
224.993
225.086
225.176
225.263
225.347
225.428
225.506
225.582
225.655
225.725
225.792
225.856
225.917
225.974
226.028
226.079
226.125
226.169
226.208
226.244
226.276
226.304
226.329
226.351
226.368
226.383
226.394
226.403
226.408
226.411
226.411
226.408
226.404
226.397
226.389
226.379
226.367
226.354
226.339
226.324
226.307
226.29
226.272
226.253
226.234
226.214
226.194
226.174
226.154
226.133
226.113
226.092
226.072
226.052
226.032
226.012
225.992
225.973
225.954
225.935
225.917
225.899
225.882
225.865
225.848
225.832
225.816
225.801
225.785
225.771
225.756
225.743
225.729
225.716
225.703
225.69
225.678
225.67
225.662
225.661
225.658
225.661
225.656
225.658
225.633
159.212
209.868
217.584
217.48
217.889
218.454
219.028
219.545
220.027
220.465
220.851
221.185
221.473
221.729
221.961
222.176
222.376
222.564
222.741
222.908
223.066
223.217
223.361
223.501
223.637
223.77
223.9
224.027
224.15
224.267
224.381
224.489
224.595
224.697
224.798
224.897
224.993
225.086
225.176
225.263
225.347
225.427
225.506
225.581
225.654
225.724
225.792
225.856
225.917
225.975
226.03
226.081
226.129
226.173
226.214
226.251
226.284
226.315
226.342
226.365
226.385
226.403
226.417
226.428
226.437
226.443
226.446
226.448
226.447
226.444
226.44
226.434
226.427
226.418
226.408
226.397
226.385
226.372
226.358
226.344
226.329
226.314
226.299
226.283
226.266
226.25
226.234
226.217
226.201
226.184
226.168
226.151
226.135
226.119
226.103
226.088
226.073
226.058
226.043
226.029
226.015
226.001
225.987
225.974
225.961
225.948
225.936
225.924
225.913
225.901
225.89
225.878
225.868
225.862
225.856
225.857
225.856
225.859
225.854
225.856
225.833
159.218
209.926
217.552
217.453
217.874
218.45
219.026
219.544
220.026
220.465
220.85
221.184
221.472
221.728
221.96
222.175
222.376
222.563
222.74
222.907
223.066
223.217
223.361
223.501
223.638
223.771
223.901
224.028
224.151
224.269
224.382
224.49
224.595
224.698
224.798
224.897
224.993
225.087
225.176
225.263
225.346
225.427
225.505
225.581
225.654
225.724
225.792
225.856
225.918
225.977
226.032
226.084
226.132
226.178
226.22
226.258
226.293
226.325
226.355
226.38
226.403
226.423
226.44
226.454
226.466
226.475
226.483
226.488
226.491
226.492
226.492
226.49
226.487
226.483
226.477
226.471
226.463
226.455
226.446
226.436
226.426
226.415
226.404
226.392
226.38
226.368
226.356
226.343
226.331
226.318
226.305
226.293
226.28
226.267
226.255
226.243
226.23
226.218
226.207
226.195
226.184
226.172
226.161
226.15
226.14
226.129
226.119
226.109
226.1
226.09
226.08
226.07
226.062
226.059
226.054
226.056
226.056
226.059
226.055
226.057
226.036
159.267
209.989
217.52
217.426
217.86
218.446
219.025
219.543
220.026
220.464
220.85
221.183
221.471
221.727
221.959
222.174
222.375
222.563
222.739
222.907
223.066
223.217
223.361
223.501
223.638
223.772
223.903
224.029
224.152
224.27
224.382
224.491
224.596
224.698
224.799
224.898
224.994
225.087
225.176
225.263
225.346
225.427
225.505
225.58
225.653
225.724
225.792
225.857
225.919
225.978
226.034
226.087
226.136
226.183
226.226
226.266
226.303
226.337
226.368
226.396
226.421
226.443
226.463
226.481
226.496
226.509
226.52
226.529
226.536
226.542
226.546
226.548
226.55
226.55
226.549
226.547
226.544
226.54
226.536
226.531
226.525
226.519
226.512
226.505
226.497
226.489
226.481
226.472
226.463
226.455
226.445
226.436
226.427
226.418
226.409
226.399
226.39
226.381
226.372
226.363
226.354
226.346
226.337
226.328
226.32
226.312
226.303
226.296
226.287
226.279
226.27
226.262
226.257
226.257
226.254
226.256
226.257
226.26
226.257
226.258
226.24
159.34
210.055
217.487
217.4
217.846
218.442
219.023
219.542
220.025
220.463
220.849
221.182
221.47
221.726
221.958
222.173
222.374
222.562
222.739
222.906
223.065
223.216
223.361
223.502
223.639
223.773
223.904
224.03
224.153
224.271
224.383
224.492
224.597
224.699
224.799
224.898
224.994
225.087
225.176
225.262
225.345
225.426
225.504
225.58
225.653
225.724
225.792
225.857
225.92
225.979
226.036
226.089
226.14
226.187
226.232
226.274
226.312
226.348
226.381
226.412
226.439
226.464
226.487
226.508
226.526
226.543
226.558
226.57
226.582
226.591
226.6
226.607
226.612
226.617
226.621
226.623
226.625
226.626
226.626
226.626
226.624
226.623
226.62
226.618
226.614
226.61
226.606
226.602
226.597
226.592
226.587
226.581
226.576
226.57
226.564
226.558
226.552
226.546
226.54
226.534
226.528
226.521
226.515
226.509
226.503
226.497
226.491
226.485
226.478
226.472
226.465
226.459
226.456
226.458
226.456
226.46
226.461
226.465
226.462
226.464
226.449
159.408
210.123
217.453
217.374
217.832
218.438
219.022
219.542
220.025
220.463
220.848
221.181
221.469
221.725
221.957
222.173
222.373
222.561
222.738
222.906
223.065
223.216
223.361
223.502
223.639
223.774
223.905
224.031
224.154
224.272
224.384
224.493
224.597
224.7
224.8
224.898
224.994
225.087
225.176
225.262
225.345
225.425
225.503
225.579
225.652
225.723
225.792
225.857
225.92
225.98
226.038
226.092
226.144
226.193
226.238
226.282
226.322
226.36
226.395
226.428
226.458
226.486
226.512
226.536
226.558
226.578
226.596
226.613
226.629
226.642
226.655
226.667
226.677
226.686
226.694
226.702
226.708
226.714
226.719
226.723
226.726
226.729
226.731
226.733
226.734
226.734
226.734
226.734
226.733
226.732
226.731
226.729
226.727
226.724
226.721
226.719
226.716
226.713
226.709
226.706
226.702
226.699
226.695
226.691
226.687
226.683
226.679
226.675
226.67
226.665
226.66
226.658
226.657
226.659
226.658
226.662
226.665
226.669
226.668
226.671
226.657
159.479
210.193
217.42
217.349
217.819
218.434
219.021
219.541
220.024
220.462
220.847
221.18
221.468
221.724
221.956
222.172
222.372
222.56
222.737
222.905
223.064
223.216
223.361
223.502
223.64
223.774
223.906
224.033
224.155
224.272
224.385
224.493
224.598
224.7
224.8
224.899
224.994
225.087
225.176
225.261
225.344
225.425
225.503
225.578
225.652
225.723
225.791
225.858
225.921
225.982
226.04
226.095
226.148
226.198
226.245
226.29
226.332
226.371
226.409
226.444
226.477
226.508
226.537
226.564
226.589
226.613
226.635
226.656
226.676
226.694
226.711
226.727
226.742
226.755
226.768
226.78
226.792
226.802
226.811
226.82
226.828
226.836
226.842
226.848
226.854
226.859
226.863
226.867
226.87
226.873
226.875
226.877
226.878
226.879
226.88
226.881
226.881
226.881
226.88
226.88
226.879
226.878
226.877
226.875
226.874
226.872
226.87
226.868
226.865
226.862
226.861
226.861
226.861
226.864
226.864
226.869
226.873
226.878
226.878
226.882
226.871
159.573
210.264
217.386
217.325
217.807
218.43
219.019
219.54
220.024
220.462
220.847
221.179
221.467
221.723
221.955
222.171
222.371
222.56
222.737
222.905
223.064
223.216
223.362
223.503
223.641
223.775
223.907
224.034
224.156
224.273
224.386
224.494
224.598
224.7
224.801
224.899
224.994
225.086
225.175
225.261
225.344
225.424
225.502
225.578
225.651
225.722
225.791
225.858
225.922
225.983
226.042
226.098
226.152
226.203
226.252
226.298
226.342
226.384
226.424
226.461
226.497
226.531
226.563
226.593
226.622
226.649
226.675
226.7
226.724
226.746
226.768
226.788
226.808
226.826
226.844
226.861
226.877
226.892
226.906
226.92
226.933
226.945
226.956
226.966
226.976
226.985
226.994
227.002
227.009
227.016
227.022
227.027
227.032
227.037
227.041
227.045
227.048
227.051
227.054
227.056
227.058
227.059
227.06
227.061
227.062
227.062
227.062
227.062
227.061
227.06
227.061
227.064
227.065
227.068
227.069
227.075
227.079
227.084
227.088
227.092
227.084
159.701
210.336
217.351
217.301
217.795
218.427
219.018
219.539
220.023
220.461
220.846
221.178
221.466
221.722
221.955
222.17
222.371
222.559
222.736
222.904
223.064
223.215
223.362
223.503
223.641
223.776
223.907
224.035
224.157
224.274
224.387
224.495
224.599
224.701
224.801
224.899
224.994
225.086
225.175
225.26
225.343
225.423
225.501
225.577
225.651
225.722
225.791
225.858
225.922
225.984
226.044
226.101
226.156
226.208
226.258
226.306
226.352
226.396
226.438
226.478
226.516
226.553
226.588
226.622
226.654
226.685
226.715
226.744
226.772
226.799
226.825
226.85
226.874
226.897
226.92
226.941
226.962
226.982
227.001
227.019
227.037
227.053
227.069
227.084
227.099
227.112
227.125
227.137
227.148
227.159
227.169
227.178
227.187
227.195
227.203
227.21
227.216
227.222
227.228
227.233
227.238
227.242
227.246
227.249
227.252
227.255
227.257
227.258
227.26
227.262
227.264
227.269
227.272
227.278
227.28
227.286
227.29
227.296
227.302
227.308
227.304
159.824
210.407
217.317
217.277
217.783
218.423
219.016
219.538
220.023
220.46
220.845
221.177
221.465
221.721
221.954
222.169
222.37
222.558
222.735
222.904
223.063
223.215
223.362
223.503
223.642
223.777
223.908
224.036
224.158
224.275
224.387
224.495
224.599
224.701
224.801
224.899
224.994
225.086
225.174
225.26
225.342
225.423
225.5
225.576
225.65
225.722
225.791
225.858
225.923
225.986
226.046
226.104
226.16
226.214
226.265
226.315
226.362
226.408
226.453
226.496
226.536
226.576
226.615
226.652
226.688
226.723
226.756
226.789
226.821
226.853
226.883
226.913
226.941
226.969
226.997
227.023
227.049
227.073
227.097
227.12
227.143
227.164
227.185
227.204
227.223
227.241
227.258
227.274
227.29
227.305
227.318
227.331
227.344
227.355
227.366
227.377
227.386
227.395
227.404
227.412
227.419
227.426
227.432
227.438
227.443
227.448
227.452
227.456
227.459
227.463
227.467
227.473
227.478
227.485
227.49
227.496
227.501
227.508
227.515
227.521
227.52
159.925
210.476
217.282
217.254
217.772
218.42
219.015
219.538
220.022
220.46
220.844
221.176
221.464
221.72
221.953
222.168
222.369
222.557