/*--------------------------------*- C++ -*----------------------------------*\
| =========                 |                                                 |
| \\      /  F ield         | OpenFOAM: The Open Source CFD Toolbox           |
|  \\    /   O peration     | Version:  2412                                  |
|   \\  /    A nd           | Website:  www.openfoam.com                      |
|    \\/     M anipulation  |                                                 |
\*---------------------------------------------------------------------------*/
FoamFile
{
    version     2.0;
    format      ascii;
    arch        "LSB;label=32;scalar=64";
    class       volScalarField;
    location    "0.03";
    object      T;
}
// * * * * * * * * * * * * * * * * * * * * * * * * * * * * * * * * * * * * * //

dimensions      [0 0 0 1 0 0 0];

internalField   nonuniform List<scalar> 
78650
(
223
223
223
223
223
223
223
223
223
223
223
223.001
223.015
223.136
223.497
223.927
224.125
224.183
224.08
223.725
223.295
222.966
222.753
222.62
222.529
222.44
222.333
222.214
222.096
221.986
221.884
221.79
221.703
221.624
221.554
221.49
221.429
221.364
221.293
221.223
221.173
221.155
221.162
221.199
221.262
221.336
221.407
221.465
221.504
221.525
221.532
221.531
221.525
221.517
221.509
221.501
221.492
221.482
221.472
221.46
221.447
221.431
221.412
221.389
221.36
221.325
221.282
221.232
221.173
221.104
221.023
220.93
220.823
220.7
220.558
220.394
220.207
219.994
219.751
219.477
219.167
218.817
218.424
217.982
217.489
216.94
216.333
215.66
214.914
214.089
213.186
212.202
211.132
209.946
208.655
207.246
205.733
204.12
202.369
200.51
198.583
196.6
194.525
192.429
190.195
187.917
185.749
183.657
181.668
179.724
177.765
175.854
173.955
172.162
170.566
169.17
168.096
167.338
166.902
166.707
165.147
223
223
223
223
223
223
223
223
223
223
223
223
223.008
223.094
223.41
223.863
224.122
224.211
224.141
223.831
223.396
223.05
222.827
222.689
222.602
222.52
222.421
222.307
222.191
222.081
221.979
221.886
221.8
221.721
221.65
221.588
221.534
221.48
221.422
221.358
221.3
221.266
221.257
221.273
221.319
221.387
221.464
221.537
221.595
221.636
221.661
221.674
221.679
221.68
221.679
221.678
221.676
221.673
221.67
221.666
221.661
221.655
221.646
221.634
221.617
221.595
221.566
221.53
221.487
221.435
221.373
221.3
221.215
221.115
220.999
220.864
220.708
220.528
220.322
220.087
219.821
219.518
219.176
218.79
218.357
217.871
217.331
216.729
216.059
215.317
214.501
213.604
212.618
211.524
210.337
209.036
207.64
206.14
204.516
202.824
201
199.079
197.028
194.966
192.837
190.577
188.339
186.096
183.925
181.911
179.91
177.985
176.061
174.167
172.368
170.732
169.416
168.435
167.883
167.678
166.094
223
223
223
223
223
223
223
223
223
223
223
223
223.004
223.062
223.325
223.783
224.11
224.231
224.186
223.933
223.505
223.143
222.906
222.761
222.676
222.601
222.51
222.401
222.286
222.176
222.074
221.982
221.897
221.819
221.749
221.688
221.637
221.592
221.546
221.495
221.441
221.395
221.373
221.373
221.397
221.449
221.522
221.602
221.676
221.736
221.78
221.809
221.828
221.841
221.849
221.856
221.861
221.866
221.871
221.875
221.879
221.881
221.882
221.881
221.875
221.866
221.851
221.829
221.801
221.766
221.722
221.668
221.604
221.527
221.435
221.327
221.199
221.051
220.878
220.68
220.453
220.194
219.899
219.563
219.184
218.758
218.281
217.746
217.15
216.488
215.759
214.953
214.061
213.064
211.974
210.778
209.505
208.125
206.633
205.015
203.25
201.391
199.436
197.389
195.35
193.158
190.909
188.615
186.204
183.915
181.724
179.626
177.636
175.765
173.945
172.181
170.629
169.286
168.444
168.045
166.266
223
223
223
223
223
223
223
223
223
223
223
223
223.002
223.038
223.244
223.689
224.08
224.244
224.22
224.033
223.626
223.245
222.992
222.838
222.752
222.683
222.598
222.494
222.382
222.272
222.171
222.079
221.997
221.922
221.853
221.793
221.743
221.703
221.667
221.629
221.586
221.541
221.508
221.495
221.5
221.531
221.59
221.668
221.749
221.824
221.886
221.934
221.97
221.997
222.017
222.033
222.047
222.06
222.072
222.084
222.096
222.107
222.118
222.126
222.132
222.134
222.132
222.124
222.111
222.092
222.065
222.029
221.984
221.929
221.861
221.778
221.678
221.56
221.421
221.258
221.07
220.853
220.604
220.319
219.994
219.626
219.211
218.744
218.221
217.637
216.987
216.259
215.449
214.549
213.57
212.497
211.334
210.04
208.639
207.123
205.489
203.728
201.852
199.834
197.777
195.688
193.459
191.307
189.01
186.652
184.339
182.004
179.717
177.581
175.614
173.837
172.332
171.06
169.999
169.273
166.927
223
223
223
223
223
223
223
223
223
223
223
223
223.001
223.021
223.173
223.582
224.028
224.246
224.249
224.127
223.751
223.356
223.083
222.92
222.83
222.764
222.686
222.587
222.478
222.369
222.269
222.18
222.1
222.028
221.962
221.904
221.855
221.817
221.788
221.76
221.731
221.695
221.66
221.636
221.63
221.641
221.68
221.745
221.825
221.907
221.983
222.049
222.102
222.145
222.18
222.209
222.233
222.254
222.275
222.295
222.316
222.336
222.356
222.374
222.391
222.404
222.414
222.42
222.421
222.417
222.407
222.389
222.363
222.328
222.282
222.223
222.15
222.06
221.951
221.822
221.669
221.491
221.284
221.045
220.77
220.455
220.098
219.694
219.238
218.726
218.152
217.51
216.796
216.004
215.131
214.159
213.088
211.896
210.611
209.204
207.683
206.044
204.281
202.395
200.338
198.282
196.047
193.753
191.519
189.176
186.883
184.58
182.223
179.891
177.573
175.425
173.624
172.197
171.248
170.684
168.371
223
223
223
223
223
223
223
223
223
223
223
223
223
223.011
223.113
223.467
223.948
224.239
224.276
224.208
223.88
223.477
223.185
223.008
222.91
222.843
222.77
222.679
222.575
222.469
222.371
222.284
222.208
222.14
222.077
222.022
221.974
221.938
221.911
221.89
221.871
221.848
221.821
221.794
221.779
221.779
221.796
221.842
221.91
221.991
222.074
222.153
222.224
222.284
222.335
222.379
222.416
222.448
222.478
222.507
222.536
222.566
222.595
222.623
222.65
222.674
222.697
222.715
222.729
222.74
222.745
222.744
222.736
222.721
222.696
222.66
222.612
222.549
222.47
222.373
222.255
222.115
221.949
221.755
221.529
221.267
220.967
220.624
220.234
219.793
219.294
218.732
218.102
217.401
216.622
215.747
214.774
213.689
212.511
211.219
209.832
208.325
206.686
204.944
203.02
200.975
198.866
196.531
194.24
191.801
189.361
186.959
184.559
182.244
179.912
177.655
175.562
173.721
172.348
171.428
168.513
223
223
223
223
223
223
223
223
223
223
223
223
223
223.005
223.068
223.353
223.845
224.212
224.301
224.271
224.009
223.613
223.297
223.098
222.986
222.918
222.851
222.771
222.675
222.573
222.478
222.394
222.321
222.257
222.198
222.146
222.101
222.065
222.039
222.022
222.01
221.998
221.982
221.962
221.944
221.937
221.942
221.968
222.018
222.089
222.17
222.255
222.337
222.413
222.481
222.54
222.593
222.638
222.68
222.72
222.758
222.797
222.835
222.873
222.911
222.946
222.98
223.011
223.039
223.063
223.083
223.098
223.108
223.111
223.106
223.093
223.068
223.031
222.979
222.911
222.826
222.72
222.592
222.439
222.258
222.044
221.796
221.51
221.182
220.806
220.379
219.895
219.353
218.744
218.057
217.278
216.41
215.449
214.402
213.241
211.977
210.583
209.065
207.41
205.632
203.678
201.683
199.497
197.19
194.885
192.378
189.926
187.375
184.868
182.384
180.093
178.015
176.198
174.71
173.617
170.324
223
223
223
223
223
223
223
223
223
223
223
223
223
223.002
223.036
223.248
223.72
224.161
224.311
224.319
224.139
223.761
223.414
223.188
223.061
222.991
222.933
222.865
222.779
222.684
222.592
222.51
222.44
222.38
222.325
222.277
222.234
222.2
222.174
222.158
222.149
222.144
222.138
222.129
222.117
222.11
222.109
222.121
222.153
222.207
222.278
222.361
222.448
222.534
222.616
222.692
222.76
222.821
222.877
222.928
222.978
223.027
223.075
223.123
223.171
223.217
223.262
223.305
223.345
223.383
223.418
223.448
223.474
223.495
223.509
223.516
223.514
223.501
223.477
223.437
223.383
223.311
223.219
223.106
222.969
222.802
222.606
222.374
222.105
221.794
221.436
221.027
220.561
220.03
219.429
218.752
217.998
217.157
216.224
215.176
214.021
212.736
211.332
209.796
208.124
206.333
204.35
202.301
200.017
197.755
195.29
192.762
190.221
187.563
184.862
182.218
179.814
177.72
176.162
175.168
172.06
223
223
223
223
223
223
223
223
223
223
223
223
223
223.001
223.017
223.159
223.58
224.079
224.306
224.364
224.255
223.91
223.532
223.279
223.137
223.066
223.017
222.961
222.887
222.799
222.71
222.632
222.565
222.508
222.458
222.412
222.372
222.339
222.315
222.299
222.291
222.289
222.29
222.292
222.29
222.288
222.289
222.296
222.315
222.352
222.408
222.481
222.565
222.656
222.747
222.836
222.919
222.996
223.066
223.132
223.194
223.254
223.314
223.372
223.431
223.488
223.544
223.599
223.652
223.702
223.751
223.796
223.838
223.875
223.908
223.934
223.952
223.962
223.963
223.951
223.925
223.884
223.826
223.749
223.651
223.528
223.377
223.196
222.982
222.731
222.438
222.099
221.709
221.263
220.755
220.177
219.528
218.792
217.965
217.027
215.985
214.82
213.545
212.146
210.62
208.954
207.144
205.198
203.078
200.747
198.436
195.9
193.373
190.794
188.108
185.472
182.855
180.472
178.404
176.856
172.791
223
223
223
223
223
223
223
223
223
223
223
223
223
223
223.007
223.092
223.435
223.965
224.291
224.405
224.343
224.051
223.658
223.378
223.22
223.146
223.104
223.059
222.997
222.918
222.835
222.759
222.695
222.641
222.594
222.551
222.513
222.482
222.459
222.444
222.436
222.435
222.44
222.448
222.456
222.464
222.472
222.482
222.497
222.523
222.564
222.623
222.697
222.784
222.878
222.974
223.07
223.161
223.246
223.326
223.402
223.475
223.547
223.617
223.686
223.755
223.822
223.889
223.953
224.017
224.078
224.138
224.195
224.248
224.298
224.343
224.382
224.413
224.436
224.449
224.452
224.441
224.415
224.373
224.313
224.231
224.126
223.994
223.832
223.638
223.407
223.134
222.815
222.444
222.017
221.529
220.975
220.339
219.618
218.798
217.883
216.858
215.729
214.476
213.094
211.572
209.894
208.048
206.09
203.865
201.534
199.076
196.427
193.748
191.01
188.271
185.634
183.299
181.373
179.894
175.902
223
223
223
223
223
223
223
223
223
223
223
223
223
223
223.003
223.047
223.3
223.822
224.253
224.425
224.4
224.187
223.798
223.488
223.311
223.228
223.19
223.156
223.108
223.041
222.963
222.89
222.828
222.775
222.73
222.69
222.655
222.625
222.603
222.589
222.582
222.582
222.589
222.601
222.616
222.633
222.65
222.668
222.688
222.711
222.743
222.789
222.852
222.929
223.018
223.116
223.218
223.32
223.418
223.512
223.602
223.689
223.774
223.856
223.938
224.018
224.097
224.175
224.252
224.328
224.402
224.475
224.547
224.616
224.682
224.744
224.802
224.854
224.899
224.935
224.962
224.978
224.982
224.973
224.947
224.904
224.839
224.751
224.638
224.496
224.322
224.112
223.861
223.566
223.221
222.82
222.357
221.819
221.206
220.506
219.721
218.833
217.842
216.724
215.476
214.089
212.554
210.87
209.019
207.04
204.81
202.492
199.962
197.171
194.386
191.376
188.356
185.557
183.165
181.426
176.812
223
223
223
223
223
223
223
223
223
223
223
223
223
223
223.001
223.021
223.188
223.658
224.177
224.427
224.439
224.314
223.949
223.606
223.408
223.312
223.277
223.253
223.219
223.165
223.093
223.02
222.958
222.907
222.864
222.826
222.793
222.765
222.746
222.734
222.729
222.73
222.739
222.752
222.772
222.795
222.821
222.849
222.877
222.905
222.936
222.976
223.027
223.094
223.174
223.268
223.37
223.477
223.584
223.69
223.793
223.893
223.991
224.087
224.18
224.273
224.364
224.454
224.543
224.631
224.718
224.805
224.89
224.973
225.055
225.134
225.209
225.28
225.346
225.405
225.456
225.498
225.529
225.549
225.557
225.55
225.525
225.481
225.413
225.32
225.2
225.048
224.861
224.633
224.361
224.038
223.66
223.218
222.712
222.129
221.464
220.699
219.83
218.837
217.719
216.466
215.072
213.538
211.836
209.963
207.935
205.694
203.353
200.801
198.094
195.407
192.43
189.736
187.092
184.896
179.594
223
223
223
223
223
223
223
223
223
223
223
223
223
223
223
223.008
223.106
223.491
224.057
224.408
224.475
224.416
224.097
223.732
223.511
223.4
223.365
223.348
223.326
223.282
223.217
223.145
223.083
223.033
222.992
222.958
222.928
222.903
222.886
222.876
222.873
222.878
222.888
222.904
222.926
222.953
222.985
223.021
223.058
223.095
223.133
223.173
223.22
223.278
223.35
223.435
223.533
223.64
223.752
223.865
223.978
224.09
224.2
224.308
224.415
224.52
224.624
224.726
224.827
224.927
225.027
225.126
225.225
225.322
225.419
225.513
225.605
225.694
225.779
225.859
225.932
225.998
226.056
226.104
226.14
226.164
226.175
226.17
226.144
226.098
226.026
225.929
225.801
225.638
225.436
225.191
224.896
224.547
224.137
223.657
223.099
222.446
221.699
220.839
219.87
218.777
217.553
216.183
214.644
212.937
211.038
208.949
206.613
204.105
201.306
198.484
195.407
192.596
190.106
188.142
183.232
223
223
223
223
223
223
223
223
223
223
223
223
223
223
223
223.003
223.053
223.338
223.904
224.362
224.502
224.482
224.239
223.871
223.623
223.491
223.45
223.435
223.42
223.39
223.334
223.265
223.205
223.156
223.118
223.087
223.061
223.039
223.024
223.016
223.016
223.024
223.037
223.056
223.08
223.11
223.145
223.187
223.232
223.278
223.325
223.371
223.421
223.476
223.542
223.619
223.71
223.813
223.924
224.04
224.16
224.28
224.401
224.521
224.639
224.757
224.873
224.987
225.101
225.213
225.325
225.437
225.548
225.659
225.769
225.879
225.986
226.092
226.195
226.294
226.388
226.477
226.559
226.633
226.698
226.753
226.796
226.825
226.839
226.838
226.812
226.765
226.69
226.587
226.449
226.273
226.054
225.787
225.467
225.084
224.632
224.098
223.483
222.769
221.958
221.028
219.97
218.769
217.405
215.879
214.167
212.278
210.193
207.879
205.358
202.47
199.566
196.328
193.258
190.693
184.854
223
223
223
223
223
223
223
223
223
223
223
223
223
223
223
223.001
223.023
223.212
223.732
224.283
224.505
224.529
224.372
224.019
223.735
223.577
223.525
223.512
223.505
223.489
223.446
223.384
223.325
223.279
223.243
223.216
223.193
223.173
223.16
223.156
223.158
223.17
223.186
223.207
223.234
223.266
223.304
223.349
223.399
223.453
223.509
223.565
223.621
223.679
223.744
223.817
223.902
223.999
224.107
224.222
224.344
224.469
224.597
224.727
224.856
224.985
225.113
225.239
225.365
225.489
225.613
225.737
225.861
225.985
226.108
226.232
226.354
226.476
226.595
226.712
226.826
226.935
227.039
227.137
227.227
227.31
227.383
227.445
227.493
227.527
227.544
227.546
227.521
227.474
227.396
227.285
227.138
226.949
226.713
226.421
226.071
225.65
225.156
224.572
223.894
223.098
222.178
221.119
219.906
218.539
216.989
215.261
213.329
211.184
208.825
206.244
203.492
200.69
197.822
195.348
189.603
223
223
223
223
223
223
223
223
223
223
223
223
223
223
223
223
223.009
223.122
223.558
224.169
224.486
224.573
224.488
224.162
223.838
223.659
223.597
223.586
223.586
223.583
223.555
223.503
223.447
223.402
223.368
223.344
223.324
223.308
223.298
223.295
223.301
223.316
223.335
223.359
223.389
223.423
223.463
223.509
223.563
223.623
223.686
223.75
223.815
223.88
223.948
224.022
224.104
224.196
224.299
224.412
224.532
224.66
224.792
224.928
225.065
225.204
225.342
225.48
225.617
225.753
225.888
226.024
226.16
226.296
226.432
226.569
226.705
226.842
226.977
227.11
227.242
227.37
227.494
227.614
227.729
227.837
227.937
228.029
228.111
228.182
228.237
228.276
228.298
228.302
228.279
228.229
228.146
228.028
227.869
227.663
227.407
227.089
226.705
226.238
225.683
225.022
224.251
223.353
222.318
221.135
219.773
218.234
216.479
214.51
212.288
209.814
207.038
204.225
201.062
198.541
193.183
223
223
223
223
223
223
223
223
223
223
223
223
223
223
223
223
223.003
223.064
223.399
224.026
224.454
224.611
224.564
224.288
223.942
223.744
223.67
223.659
223.664
223.673
223.659
223.619
223.568
223.525
223.494
223.472
223.456
223.444
223.436
223.436
223.445
223.462
223.484
223.511
223.543
223.58
223.621
223.67
223.725
223.788
223.856
223.928
224.001
224.075
224.149
224.227
224.31
224.4
224.5
224.609
224.728
224.854
224.988
225.127
225.271
225.416
225.564
225.711
225.858
226.005
226.152
226.299
226.446
226.594
226.743
226.892
227.041
227.191
227.341
227.49
227.637
227.783
227.926
228.066
228.202
228.333
228.459
228.578
228.689
228.79
228.881
228.959
229.022
229.067
229.094
229.101
229.078
229.026
228.939
228.811
228.64
228.416
228.133
227.777
227.347
226.825
226.21
225.481
224.629
223.633
222.47
221.14
219.604
217.861
215.861
213.627
211.131
208.523
205.437
202.581
196.799
223
223
223
223
223
223
223
223
223
223
223
223
223
223
223
223
223.001
223.031
223.269
223.867
224.407
224.626
224.611
224.404
224.051
223.833
223.742
223.727
223.739
223.758
223.756
223.731
223.689
223.649
223.62
223.601
223.589
223.581
223.576
223.577
223.589
223.608
223.633
223.662
223.697
223.735
223.779
223.829
223.887
223.952
224.024
224.1
224.18
224.261
224.343
224.427
224.514
224.606
224.706
224.813
224.929
225.053
225.186
225.327
225.473
225.624
225.778
225.934
226.09
226.246
226.403
226.56
226.718
226.877
227.037
227.198
227.359
227.522
227.685
227.848
228.01
228.172
228.332
228.491
228.646
228.798
228.947
229.09
229.228
229.359
229.481
229.593
229.694
229.781
229.851
229.903
229.934
229.943
229.921
229.866
229.773
229.634
229.446
229.198
228.886
228.494
228.018
227.434
226.732
225.891
224.896
223.735
222.377
220.822
219.023
216.99
214.695
212.193
209.526
206.966
201.969
223
223
223
223
223
223
223
223
223
223
223
223
223
223
223
223
223
223.014
223.173
223.71
224.333
224.627
224.646
224.506
224.16
223.918
223.81
223.789
223.809
223.842
223.851
223.84
223.807
223.771
223.745
223.729
223.72
223.715
223.713
223.716
223.73
223.751
223.778
223.81
223.847
223.889
223.935
223.988
224.048
224.115
224.189
224.269
224.353
224.44
224.529
224.62
224.713
224.809
224.91
225.018
225.132
225.255
225.386
225.527
225.675
225.829
225.987
226.149
226.313
226.478
226.643
226.81
226.978
227.147
227.317
227.489
227.662
227.836
228.011
228.187
228.363
228.539
228.715
228.89
229.063
229.235
229.403
229.568
229.73
229.886
230.036
230.179
230.313
230.436
230.547
230.643
230.722
230.78
230.816
230.827
230.805
230.746
230.645
230.493
230.286
230.007
229.654
229.202
228.649
227.972
227.159
226.191
225.039
223.694
222.113
220.301
218.185
215.833
213.197
210.421
205.58
223
223
223
223
223
223
223
223
223
223
223
223
223
223
223
223
223
223.006
223.109
223.568
224.24
224.616
224.677
224.59
224.261
223.993
223.872
223.848
223.875
223.926
223.946
223.944
223.919
223.888
223.864
223.85
223.844
223.842
223.843
223.849
223.865
223.889
223.918
223.953
223.993
224.038
224.087
224.143
224.205
224.275
224.352
224.434
224.522
224.613
224.707
224.804
224.903
225.005
225.11
225.22
225.335
225.457
225.588
225.728
225.876
226.031
226.193
226.359
226.528
226.7
226.873
227.048
227.224
227.402
227.582
227.763
227.947
228.131
228.318
228.505
228.694
228.883
229.073
229.263
229.452
229.64
229.827
230.012
230.194
230.374
230.549
230.719
230.882
231.038
231.184
231.319
231.44
231.547
231.634
231.699
231.739
231.753
231.731
231.666
231.554
231.381
231.146
230.829
230.429
229.918
229.29
228.519
227.581
226.458
225.112
223.529
221.662
219.583
217.179
214.704
210.405
223
223
223
223
223
223
223
223
223
223
223
223
223
223
223
223
223
223.003
223.068
223.451
224.141
224.595
224.706
224.655
224.346
224.058
223.932
223.906
223.941
224.009
224.04
224.042
224.023
223.996
223.974
223.962
223.959
223.962
223.966
223.974
223.992
224.019
224.051
224.09
224.133
224.181
224.234
224.293
224.359
224.432
224.512
224.596
224.686
224.781
224.879
224.981
225.085
225.193
225.303
225.417
225.534
225.657
225.788
225.927
226.075
226.231
226.394
226.563
226.737
226.913
227.093
227.274
227.458
227.644
227.833
228.023
228.216
228.41
228.607
228.805
229.005
229.206
229.408
229.611
229.814
230.018
230.221
230.423
230.624
230.824
231.021
231.215
231.404
231.588
231.765
231.934
232.093
232.24
232.373
232.49
232.585
232.657
232.702
232.718
232.693
232.619
232.493
232.299
232.034
231.67
231.202
230.6
229.844
228.911
227.772
226.402
224.77
222.867
220.666
218.233
214.436
223
223
223
223
223
223
223
223
223
223
223
223
223
223
223
223
223
223.002
223.044
223.36
224.048
224.571
224.732
224.697
224.414
224.117
223.99
223.964
224.004
224.089
224.129
224.131
224.116
224.093
224.074
224.067
224.068
224.075
224.082
224.093
224.114
224.144
224.179
224.22
224.267
224.319
224.376
224.438
224.507
224.583
224.666
224.754
224.846
224.943
225.045
225.15
225.259
225.372
225.488
225.606
225.727
225.853
225.984
226.123
226.271
226.427
226.592
226.763
226.939
227.12
227.304
227.491
227.682
227.875
228.07
228.269
228.469
228.673
228.878
229.086
229.295
229.507
229.72
229.935
230.151
230.368
230.585
230.803
231.02
231.237
231.454
231.668
231.88
232.089
232.293
232.491
232.683
232.866
233.039
233.199
233.344
233.472
233.577
233.657
233.707
233.723
233.695
233.609
233.464
233.233
232.915
232.479
231.913
231.186
230.263
229.12
227.715
226.014
224.046
221.687
218.329
223
223
223
223
223
223
223
223
223
223
223
223
223
223
223
223
223
223.001
223.03
223.296
223.971
224.552
224.751
224.726
224.468
224.169
224.045
224.021
224.065
224.164
224.211
224.213
224.201
224.182
224.169
224.167
224.173
224.185
224.196
224.21
224.233
224.265
224.303
224.346
224.396
224.451
224.511
224.576
224.649
224.728
224.814
224.905
225
225.1
225.204
225.313
225.426
225.543
225.663
225.787
225.912
226.041
226.174
226.314
226.463
226.619
226.784
226.957
227.135
227.319
227.507
227.699
227.894
228.093
228.295
228.5
228.708
228.919
229.133
229.349
229.567
229.788
230.011
230.236
230.463
230.692
230.922
231.153
231.385
231.617
231.85
232.083
232.314
232.544
232.772
232.996
233.215
233.429
233.636
233.834
234.021
234.196
234.354
234.494
234.61
234.696
234.75
234.766
234.73
234.626
234.454
234.184
233.809
233.292
232.604
231.718
230.573
229.133
227.398
225.214
222.124
223
223
223
223
223
223
223
223
223
223
223
223
223
223
223
223
223
223.001
223.023
223.255
223.914
224.539
224.764
224.748
224.509
224.214
224.095
224.075
224.123
224.234
224.287
224.29
224.281
224.268
224.26
224.263
224.275
224.293
224.306
224.323
224.349
224.383
224.422
224.467
224.519
224.576
224.639
224.707
224.783
224.866
224.955
225.049
225.148
225.25
225.357
225.469
225.585
225.706
225.83
225.958
226.088
226.221
226.357
226.499
226.649
226.806
226.972
227.145
227.326
227.512
227.703
227.898
228.098
228.301
228.509
228.72
228.934
229.152
229.372
229.596
229.822
230.051
230.283
230.517
230.753
230.992
231.233
231.476
231.72
231.966
232.213
232.461
232.71
232.958
233.206
233.451
233.695
233.935
234.171
234.402
234.625
234.839
235.042
235.233
235.405
235.559
235.684
235.779
235.838
235.853
235.808
235.684
235.475
235.142
234.668
234.011
233.095
231.889
230.342
228.35
225.513
223
223
223
223
223
223
223
223
223
223
223
223
223
223
223
223
223
223.001
223.02
223.234
223.884
224.536
224.776
224.765
224.537
224.25
224.138
224.123
224.18
224.302
224.36
224.364
224.357
224.349
224.346
224.354
224.372
224.394
224.411
224.431
224.46
224.495
224.536
224.583
224.636
224.695
224.76
224.831
224.91
224.996
225.089
225.186
225.288
225.394
225.504
225.618
225.737
225.861
225.989
226.121
226.256
226.392
226.532
226.677
226.828
226.987
227.153
227.328
227.509
227.697
227.89
228.089
228.292
228.499
228.712
228.928
229.147
229.371
229.597
229.827
230.06
230.296
230.535
230.778
231.023
231.27
231.521
231.774
232.029
232.286
232.546
232.807
233.07
233.334
233.598
233.863
234.127
234.389
234.65
234.908
235.161
235.409
235.65
235.883
236.103
236.311
236.5
236.669
236.806
236.91
236.972
236.983
236.919
236.757
236.484
236.067
235.442
234.565
233.281
231.526
228.894
223
223
223
223
223
223
223
223
223
223
223
223
223
223
223
223
223
223
223.02
223.231
223.88
224.541
224.789
224.779
224.552
224.277
224.174
224.167
224.239
224.371
224.433
224.439
224.433
224.427
224.427
224.44
224.463
224.489
224.509
224.532
224.564
224.601
224.645
224.693
224.748
224.809
224.876
224.949
225.03
225.119
225.215
225.316
225.422
225.531
225.644
225.76
225.882
226.009
226.141
226.277
226.415
226.555
226.698
226.846
227
227.16
227.328
227.504
227.687
227.876
228.071
228.272
228.478
228.689
228.905
229.125
229.35
229.578
229.81
230.045
230.284
230.527
230.773
231.022
231.274
231.53
231.788
232.05
232.315
232.582
232.852
233.125
233.4
233.678
233.957
234.237
234.518
234.8
235.081
235.361
235.64
235.917
236.189
236.457
236.718
236.971
237.212
237.439
237.646
237.833
237.983
238.097
238.163
238.171
238.087
237.899
237.549
236.989
236.004
234.624
232.163
223
223
223
223
223
223
223
223
223
223
223
223
223
223
223
223
223
223.001
223.021
223.24
223.902
224.56
224.804
224.789
224.555
224.295
224.202
224.208
224.302
224.441
224.505
224.514
224.508
224.502
224.504
224.52
224.546
224.575
224.598
224.625
224.66
224.701
224.747
224.798
224.855
224.918
224.986
225.062
225.145
225.237
225.336
225.44
225.548
225.661
225.777
225.896
226.021
226.15
226.285
226.424
226.566
226.71
226.857
227.008
227.164
227.326
227.496
227.673
227.858
228.048
228.245
228.448
228.656
228.87
229.089
229.313
229.542
229.775
230.011
230.252
230.496
230.744
230.995
231.251
231.51
231.772
232.038
232.308
232.58
232.857
233.136
233.419
233.705
233.994
234.285
234.579
234.875
235.172
235.471
235.771
236.071
236.371
236.67
236.967
237.261
237.551
237.835
238.11
238.374
238.625
238.855
239.065
239.234
239.361
239.426
239.42
239.287
239.015
238.41
237.578
235.632
223
223
223
223
223
223
223
223
223
223
223
223
223
223
223
223
223
223.001
223.024
223.267
223.951
224.591
224.82
224.793
224.547
224.307
224.225
224.245
224.368
224.512
224.576
224.586
224.582
224.577
224.579
224.597
224.626
224.656
224.682
224.712
224.751
224.796
224.846
224.9
224.959
225.024
225.094
225.172
225.257
225.351
225.452
225.559
225.67
225.785
225.904
226.026
226.153
226.285
226.423
226.565
226.71
226.857
227.007
227.161
227.32
227.485
227.657
227.836
228.022
228.214
228.412
228.617
228.827
229.044
229.266
229.494
229.726
229.962
230.203
230.448
230.697
230.95
231.206
231.467
231.732
232.001
232.273
232.55
232.83
233.114
233.401
233.693
233.988
234.287
234.589
234.895
235.203
235.515
235.828
236.145
236.463
236.783
237.104
237.425
237.747
238.067
238.386
238.701
239.011
239.314
239.606
239.885
240.142
240.376
240.562
240.706
240.783
240.777
240.543
240.137
239.022
223
223
223
223
223
223
223
223
223
223
223
223
223
223
223
223
223
223.001
223.032
223.313
224.023
224.629
224.834
224.793
224.532
224.317
224.248
224.284
224.434
224.58
224.642
224.654
224.652
224.648
224.653
224.673
224.704
224.734
224.763
224.797
224.84
224.889
224.942
224.999
225.061
225.128
225.2
225.279
225.366
225.461
225.564
225.673
225.786
225.904
226.025
226.15
226.279
226.414
226.555
226.699
226.847
226.997
227.15
227.307
227.469
227.637
227.811
227.991
228.179
228.373
228.573
228.779
228.992
229.211
229.436
229.666
229.901
230.142
230.386
230.635
230.888
231.146
231.407
231.673
231.943
232.217
232.496
232.778
233.065
233.356
233.651
233.951
234.254
234.562
234.874
235.19
235.51
235.833
236.16
236.49
236.824
237.16
237.5
237.842
238.186
238.531
238.878
239.225
239.571
239.916
240.256
240.59
240.915
241.229
241.519
241.784
242.003
242.194
242.298
242.2
241.905
223
223
223
223
223
223
223
223
223
223
223
223
223
223
223
223
223
223.002
223.046
223.38
224.113
224.671
224.841
224.786
224.514
224.325
224.275
224.331
224.501
224.643
224.7
224.713
224.714
224.715
224.724
224.748
224.781
224.812
224.842
224.88
224.927
224.98
225.036
225.097
225.161
225.23
225.303
225.384
225.472
225.569
225.673
225.783
225.898
226.018
226.141
226.268
226.4
226.537
226.68
226.827
226.978
227.13
227.286
227.446
227.611
227.781
227.957
228.14
228.329
228.524
228.726
228.934
229.149
229.37
229.598
229.831
230.069
230.313
230.561
230.813
231.07
231.332
231.598
231.868
232.143
232.422
232.706
232.995
233.287
233.585
233.887
234.193
234.504
234.82
235.141
235.466
235.795
236.129
236.467
236.809
237.156
237.507
237.862
238.22
238.583
238.949
239.318
239.691
240.065
240.441
240.818
241.194
241.568
241.938
242.297
242.643
242.968
243.281
243.556
243.724
243.885
223
223
223
223
223
223
223
223
223
223
223
223
223
223
223
223
223
223.003
223.068
223.468
224.215
224.714
224.842
224.765
224.495
224.335
224.307
224.391
224.573
224.702
224.75
224.763
224.767
224.773
224.788
224.818
224.853
224.885
224.918
224.96
225.011
225.067
225.127
225.191
225.258
225.329
225.404
225.486
225.576
225.674
225.779
225.89
226.006
226.127
226.252
226.381
226.515
226.654
226.799
226.949
227.101
227.257
227.415
227.578
227.745
227.918
228.096
228.281
228.472
228.669
228.872
229.082
229.299
229.523
229.753
229.989
230.23
230.476
230.728
230.983
231.244
231.509
231.779
232.054
232.334
232.618
232.907
233.2
233.499
233.802
234.11
234.423
234.741
235.064
235.392
235.726
236.064
236.406
236.754
237.107
237.465
237.827
238.195
238.567
238.945
239.327
239.714
240.105
240.5
240.899
241.3
241.704
242.11
242.514
242.915
243.308
243.687
244.058
244.389
244.658
244.924
223
223
223
223
223
223
223
223
223
223
223
223
223
223
223
223
223
223.006
223.102
223.577
224.323
224.754
224.84
224.729
224.475
224.348
224.345
224.464
224.65
224.76
224.797
224.807
224.813
224.823
224.846
224.881
224.918
224.953
224.989
225.035
225.09
225.15
225.214
225.281
225.351
225.424
225.502
225.585
225.677
225.775
225.881
225.993
226.11
226.232
226.358
226.489
226.624
226.766
226.913
227.064
227.219
227.376
227.537
227.702
227.872
228.047
228.228
228.415
228.608
228.806
229.011
229.223
229.442
229.668
229.9
230.138
230.382
230.631
230.886
231.145
231.409
231.677
231.951
232.23
232.513
232.802
233.095
233.394
233.697
234.006
234.319
234.638
234.962
235.292
235.627
235.967
236.313
236.663
237.02
237.381
237.748
238.12
238.498
238.881
239.27
239.663
240.062
240.466
240.874
241.286
241.702
242.12
242.539
242.958
243.371
243.776
244.163
244.538
244.866
245.127
245.339
223
223
223
223
223
223
223
223
223
223
223
223
223
223
223
223
223
223.011
223.152
223.704
224.428
224.79
224.833
224.684
224.456
224.362
224.385
224.545
224.728
224.819
224.844
224.85
224.857
224.871
224.899
224.938
224.978
225.015
225.055
225.106
225.164
225.228
225.295
225.365
225.438
225.514
225.595
225.68
225.773
225.873
225.979
226.091
226.209
226.331
226.459
226.591
226.728
226.871
227.02
227.173
227.329
227.489
227.652
227.82
227.992
228.169