/*--------------------------------*- C++ -*----------------------------------*\
| =========                 |                                                 |
| \\      /  F ield         | OpenFOAM: The Open Source CFD Toolbox           |
|  \\    /   O peration     | Version:  2406                                  |
|   \\  /    A nd           | Website:  www.openfoam.com                      |
|    \\/     M anipulation  |                                                 |
\*---------------------------------------------------------------------------*/
FoamFile
{
    version     2.0;
    format      ascii;
    arch        "LSB;label=32;scalar=64";
    class       volVectorField;
    location    "0.03";
    object      U;
}
// * * * * * * * * * * * * * * * * * * * * * * * * * * * * * * * * * * * * * //

dimensions      [0 1 -1 0 0 0 0];

internalField   nonuniform List<vector> 
78650
(
(200.425 6.41768 0)
(205.962 0.802735 0)
(207.3 1.19205 0)
(208.955 0.781475 0)
(210.342 0.492246 0)
(211.301 0.382579 0)
(211.928 0.416682 0)
(212.349 0.592466 0)
(212.762 0.820755 0)
(213.231 1.04535 0)
(213.759 1.23992 0)
(214.296 1.45043 0)
(214.798 1.71995 0)
(215.263 2.04855 0)
(215.703 2.42215 0)
(216.123 2.8324 0)
(216.525 3.28665 0)
(216.917 3.7883 0)
(217.307 4.33006 0)
(217.703 4.91004 0)
(218.102 5.52559 0)
(218.474 6.16703 0)
(218.787 6.81596 0)
(219.028 7.46001 0)
(219.198 8.09476 0)
(219.316 8.71955 0)
(219.397 9.34121 0)
(219.457 9.96307 0)
(219.509 10.5957 0)
(219.573 11.2478 0)
(219.661 11.9251 0)
(219.776 12.6323 0)
(219.928 13.3698 0)
(220.1 14.1372 0)
(220.279 14.9372 0)
(220.456 15.7729 0)
(220.626 16.6457 0)
(220.78 17.5527 0)
(220.915 18.4927 0)
(221.034 19.4665 0)
(221.141 20.4751 0)
(221.232 21.5173 0)
(221.309 22.5913 0)
(221.375 23.6958 0)
(221.433 24.83 0)
(221.484 25.9946 0)
(221.531 27.1906 0)
(221.573 28.419 0)
(221.614 29.6805 0)
(221.657 30.9754 0)
(221.705 32.3037 0)
(221.764 33.6658 0)
(221.835 35.0616 0)
(221.924 36.491 0)
(222.035 37.9541 0)
(222.173 39.4512 0)
(222.346 40.9827 0)
(222.557 42.5486 0)
(222.804 44.1487 0)
(223.104 45.7845 0)
(223.463 47.4554 0)
(223.87 49.1605 0)
(224.35 50.9009 0)
(224.907 52.6752 0)
(225.535 54.4806 0)
(226.263 56.3147 0)
(227.092 58.173 0)
(228.018 60.0543 0)
(229.081 61.956 0)
(230.264 63.8724 0)
(231.572 65.8 0)
(233.05 67.7317 0)
(234.667 69.6648 0)
(236.443 71.5939 0)
(238.408 73.5053 0)
(240.538 75.3907 0)
(242.856 77.2422 0)
(245.393 79.0377 0)
(248.109 80.7785 0)
(251.055 82.4443 0)
(254.221 84.0315 0)
(257.621 85.505 0)
(261.246 86.8755 0)
(265.125 88.0796 0)
(269.164 89.1669 0)
(273.352 90.099 0)
(277.749 90.869 0)
(282.588 91.3901 0)
(287.719 91.6697 0)
(292.63 91.8207 0)
(297.42 91.802 0)
(302.197 91.5488 0)
(307.734 91.0052 0)
(313.056 90.4624 0)
(317.991 89.9301 0)
(322.333 89.2856 0)
(326.91 88.3382 0)
(331.426 87.4191 0)
(335.625 86.6958 0)
(339.684 85.7974 0)
(343.257 84.8286 0)
(346.922 83.6576 0)
(350.671 82.2888 0)
(353.923 81.2633 0)
(357.476 79.8212 0)
(360.205 78.7901 0)
(363.454 77.1021 0)
(365.926 75.925 0)
(368.849 74.507 0)
(371.104 73.9061 0)
(373.884 72.9934 0)
(376.037 72.4124 0)
(378.695 71.231 0)
(380.521 70.2472 0)
(382.233 68.9274 0)
(383.299 68.042 0)
(384.515 67.0265 0)
(385.976 66.7961 0)
(388.448 66.508 0)
(391.893 66.1711 0)
(393.265 68.0366 0)
(200.994 6.0757 0)
(205.863 1.01632 0)
(206.96 1.34652 0)
(208.551 0.920903 0)
(209.957 0.568066 0)
(210.964 0.434496 0)
(211.645 0.471763 0)
(212.103 0.657247 0)
(212.525 0.90084 0)
(212.986 1.14324 0)
(213.507 1.3528 0)
(214.049 1.56984 0)
(214.558 1.84147 0)
(215.026 2.17289 0)
(215.462 2.55008 0)
(215.874 2.96009 0)
(216.258 3.40608 0)
(216.618 3.89147 0)
(216.968 4.41882 0)
(217.318 4.98513 0)
(217.674 5.58409 0)
(218.024 6.21112 0)
(218.353 6.85486 0)
(218.638 7.50196 0)
(218.86 8.14092 0)
(219.024 8.76525 0)
(219.131 9.37958 0)
(219.197 9.99346 0)
(219.232 10.6164 0)
(219.261 11.2569 0)
(219.294 11.9197 0)
(219.342 12.6095 0)
(219.423 13.3281 0)
(219.526 14.0758 0)
(219.646 14.8558 0)
(219.773 15.6715 0)
(219.899 16.5251 0)
(220.014 17.4133 0)
(220.113 18.3347 0)
(220.199 19.2895 0)
(220.272 20.2787 0)
(220.33 21.3014 0)
(220.372 22.3559 0)
(220.401 23.4408 0)
(220.42 24.5553 0)
(220.431 25.6998 0)
(220.435 26.8753 0)
(220.432 28.0829 0)
(220.426 29.3235 0)
(220.419 30.5975 0)
(220.413 31.905 0)
(220.413 33.2466 0)
(220.423 34.6224 0)
(220.446 36.0321 0)
(220.487 37.4763 0)
(220.549 38.9553 0)
(220.64 40.4698 0)
(220.764 42.0198 0)
(220.916 43.6052 0)
(221.117 45.2282 0)
(221.367 46.8881 0)
(221.659 48.5843 0)
(222.017 50.3192 0)
(222.44 52.0913 0)
(222.927 53.8983 0)
(223.504 55.7398 0)
(224.171 57.6128 0)
(224.925 59.5163 0)
(225.806 61.4478 0)
(226.794 63.4015 0)
(227.9 65.3761 0)
(229.167 67.3672 0)
(230.564 69.369 0)
(232.114 71.3751 0)
(233.844 73.3769 0)
(235.73 75.371 0)
(237.798 77.3515 0)
(240.079 79.2973 0)
(242.531 81.203 0)
(245.203 83.0445 0)
(248.084 84.8118 0)
(251.169 86.4889 0)
(254.433 88.0898 0)
(257.903 89.5609 0)
(261.523 90.951 0)
(265.432 92.1591 0)
(269.598 93.1991 0)
(273.968 94.0758 0)
(278.307 94.7955 0)
(282.694 95.3804 0)
(287.361 95.762 0)
(292.526 95.987 0)
(297.783 96.0242 0)
(302.343 95.8346 0)
(306.734 95.5384 0)
(311.69 95.0276 0)
(317.419 94.3485 0)
(322.682 93.3469 0)
(327.287 92.2434 0)
(332.043 90.9024 0)
(336.227 89.7686 0)
(340.46 88.6867 0)
(344.471 87.7481 0)
(348.024 86.9899 0)
(351.806 85.8401 0)
(355.044 84.882 0)
(358.808 83.3801 0)
(361.778 82.3455 0)
(365.223 80.8862 0)
(367.867 79.9756 0)
(370.982 78.6268 0)
(373.376 77.7856 0)
(376.201 76.4821 0)
(377.997 75.7539 0)
(379.626 74.5724 0)
(380.316 73.8898 0)
(380.924 72.8431 0)
(381.842 72.4974 0)
(384.251 72.1143 0)
(388.233 71.8328 0)
(389.845 74.185 0)
(201.408 5.64617 0)
(205.838 1.18446 0)
(206.683 1.47207 0)
(208.159 1.05408 0)
(209.552 0.63805 0)
(210.588 0.474336 0)
(211.301 0.497105 0)
(211.783 0.676598 0)
(212.2 0.92353 0)
(212.64 1.17562 0)
(213.142 1.39753 0)
(213.682 1.62306 0)
(214.203 1.89997 0)
(214.679 2.23666 0)
(215.114 2.61898 0)
(215.524 3.03152 0)
(215.902 3.47613 0)
(216.251 3.95483 0)
(216.576 4.46995 0)
(216.887 5.02129 0)
(217.196 5.60571 0)
(217.504 6.21938 0)
(217.815 6.85278 0)
(218.116 7.49597 0)
(218.383 8.1375 0)
(218.604 8.76806 0)
(218.765 9.38885 0)
(218.867 10.0058 0)
(218.913 10.6282 0)
(218.931 11.2626 0)
(218.932 11.9164 0)
(218.929 12.5934 0)
(218.948 13.2956 0)
(218.983 14.0238 0)
(219.039 14.7827 0)
(219.108 15.5766 0)
(219.183 16.4089 0)
(219.252 17.2773 0)
(219.309 18.18 0)
(219.359 19.1164 0)
(219.397 20.0876 0)
(219.418 21.0927 0)
(219.422 22.1301 0)
(219.413 23.1983 0)
(219.392 24.2963 0)
(219.361 25.4242 0)
(219.321 26.5831 0)
(219.273 27.7741 0)
(219.218 28.9981 0)
(219.159 30.2555 0)
(219.099 31.5467 0)
(219.042 32.872 0)
(218.99 34.2316 0)
(218.947 35.6255 0)
(218.918 37.054 0)
(218.906 38.5177 0)
(218.919 40.0172 0)
(218.958 41.5526 0)
(219.02 43.124 0)
(219.126 44.7338 0)
(219.274 46.3812 0)
(219.456 48.0657 0)
(219.699 49.79 0)
(219.998 51.5528 0)
(220.352 53.3526 0)
(220.789 55.1896 0)
(221.303 57.0605 0)
(221.895 58.9639 0)
(222.604 60.8995 0)
(223.404 62.8622 0)
(224.313 64.8512 0)
(225.37 66.8624 0)
(226.54 68.8918 0)
(227.85 70.9381 0)
(229.326 72.995 0)
(230.941 75.0558 0)
(232.731 77.1126 0)
(234.715 79.1497 0)
(236.855 81.1671 0)
(239.212 83.1504 0)
(241.777 85.0896 0)
(244.549 86.9729 0)
(247.543 88.7962 0)
(250.794 90.5176 0)
(254.237 92.1619 0)
(257.922 93.6496 0)
(261.755 95.0568 0)
(265.786 96.2673 0)
(269.977 97.2942 0)
(274.465 98.1692 0)
(279.286 98.8613 0)
(283.867 99.3479 0)
(288.293 99.7715 0)
(292.846 100.043 0)
(297.868 100.049 0)
(303.3 99.7271 0)
(307.997 99.3849 0)
(312.754 98.9141 0)
(317.249 98.4165 0)
(322.16 97.7094 0)
(327.282 96.7865 0)
(332.186 95.6693 0)
(337.148 94.2224 0)
(341.217 92.9104 0)
(345.766 91.3128 0)
(349.467 90.1313 0)
(353.546 88.6779 0)
(356.694 87.8347 0)
(360.202 86.5839 0)
(362.854 85.9346 0)
(366.013 84.7054 0)
(368.411 83.9545 0)
(371.066 82.7375 0)
(372.939 81.9277 0)
(374.626 80.7764 0)
(375.743 80.1067 0)
(377.207 79.1482 0)
(379.007 78.6702 0)
(381.843 78.143 0)
(385.888 77.788 0)
(387.585 79.763 0)
(201.922 5.11799 0)
(205.876 1.28577 0)
(206.458 1.55419 0)
(207.78 1.18575 0)
(209.164 0.741275 0)
(210.229 0.555898 0)
(210.955 0.547083 0)
(211.445 0.701392 0)
(211.843 0.935278 0)
(212.248 1.18677 0)
(212.719 1.41673 0)
(213.248 1.64845 0)
(213.773 1.92672 0)
(214.254 2.26455 0)
(214.689 2.64901 0)
(215.094 3.06209 0)
(215.468 3.5042 0)
(215.814 3.97792 0)
(216.127 4.48577 0)
(216.416 5.02529 0)
(216.686 5.59478 0)
(216.947 6.19154 0)
(217.218 6.80929 0)
(217.498 7.44247 0)
(217.781 8.08113 0)
(218.048 8.71524 0)
(218.27 9.34298 0)
(218.429 9.96694 0)
(218.515 10.5936 0)
(218.549 11.2299 0)
(218.543 11.88 0)
(218.515 12.5483 0)
(218.49 13.2403 0)
(218.467 13.9517 0)
(218.46 14.6913 0)
(218.471 15.4633 0)
(218.489 16.2729 0)
(218.504 17.119 0)
(218.515 17.9997 0)
(218.524 18.9141 0)
(218.523 19.8635 0)
(218.507 20.847 0)
(218.475 21.8629 0)
(218.428 22.9096 0)
(218.369 23.9862 0)
(218.299 25.0926 0)
(218.218 26.2296 0)
(218.127 27.3982 0)
(218.028 28.5995 0)
(217.921 29.834 0)
(217.811 31.1021 0)
(217.699 32.4043 0)
(217.59 33.7411 0)
(217.486 35.1121 0)
(217.391 36.518 0)
(217.308 37.9594 0)
(217.245 39.4374 0)
(217.202 40.9516 0)
(217.178 42.5025 0)
(217.19 44.0932 0)
(217.236 45.7226 0)
(217.311 47.3905 0)
(217.439 49.1004 0)
(217.614 50.8512 0)
(217.836 52.6422 0)
(218.13 54.4748 0)
(218.491 56.3458 0)
(218.921 58.2551 0)
(219.456 60.2033 0)
(220.071 62.1851 0)
(220.786 64.2012 0)
(221.638 66.2497 0)
(222.589 68.3258 0)
(223.677 70.427 0)
(224.919 72.5461 0)
(226.29 74.6784 0)
(227.83 76.8207 0)
(229.553 78.9622 0)
(231.422 81.0989 0)
(233.504 83.2124 0)
(235.781 85.2882 0)
(238.249 87.314 0)
(240.923 89.2824 0)
(243.812 91.1767 0)
(246.868 93.0208 0)
(250.177 94.7571 0)
(253.661 96.4218 0)
(257.455 97.9282 0)
(261.518 99.321 0)
(265.788 100.508 0)
(270.214 101.596 0)
(274.703 102.463 0)
(279.493 103.119 0)
(284.601 103.519 0)
(289.633 103.86 0)
(294.743 104.088 0)
(299.313 104.152 0)
(304.069 103.967 0)
(309.03 103.621 0)
(313.662 103.297 0)
(318.476 102.78 0)
(322.58 102.425 0)
(327.098 101.637 0)
(331.229 100.9 0)
(335.795 99.7869 0)
(339.77 98.8586 0)
(343.976 97.6382 0)
(347.435 96.7633 0)
(351.309 95.4561 0)
(354.396 94.4923 0)
(357.952 93.0535 0)
(360.758 92.1332 0)
(364.033 90.8249 0)
(366.401 90.038 0)
(368.83 88.7893 0)
(370.236 88.0079 0)
(371.689 86.8204 0)
(373.251 86.2075 0)
(376.005 85.5336 0)
(380.618 84.8285 0)
(382.401 87.2981 0)
(202.392 4.52184 0)
(205.883 1.33975 0)
(206.253 1.59683 0)
(207.404 1.31462 0)
(208.773 0.866007 0)
(209.881 0.65634 0)
(210.62 0.599626 0)
(211.114 0.717156 0)
(211.483 0.927535 0)
(211.844 1.17144 0)
(212.27 1.40861 0)
(212.774 1.65014 0)
(213.295 1.93264 0)
(213.778 2.27148 0)
(214.208 2.65613 0)
(214.606 3.06773 0)
(214.974 3.50538 0)
(215.315 3.97235 0)
(215.624 4.47271 0)
(215.902 5.00334 0)
(216.148 5.56211 0)
(216.373 6.14517 0)
(216.597 6.74812 0)
(216.833 7.36813 0)
(217.095 7.99801 0)
(217.374 8.63056 0)
(217.639 9.26347 0)
(217.858 9.89646 0)
(218.004 10.5325 0)
(218.083 11.1748 0)
(218.094 11.8282 0)
(218.064 12.4939 0)
(218.017 13.1783 0)
(217.955 13.8791 0)
(217.897 14.605 0)
(217.851 15.3566 0)
(217.81 16.1429 0)
(217.766 16.9651 0)
(217.725 17.8229 0)
(217.686 18.7143 0)
(217.641 19.6413 0)
(217.583 20.6029 0)
(217.509 21.5976 0)
(217.421 22.624 0)
(217.321 23.6807 0)
(217.208 24.7676 0)
(217.084 25.8851 0)
(216.948 27.0342 0)
(216.802 28.2159 0)
(216.646 29.4308 0)
(216.483 30.6794 0)
(216.316 31.962 0)
(216.148 33.2792 0)
(215.982 34.631 0)
(215.821 36.0174 0)
(215.669 37.4395 0)
(215.531 38.8982 0)
(215.407 40.3935 0)
(215.3 41.9251 0)
(215.223 43.4971 0)
(215.172 45.1077 0)
(215.146 46.757 0)
(215.166 48.4492 0)
(215.225 50.1824 0)
(215.324 51.9566 0)
(215.488 53.7741 0)
(215.707 55.6312 0)
(215.988 57.5282 0)
(216.363 59.4668 0)
(216.803 61.4416 0)
(217.336 63.4548 0)
(217.991 65.5045 0)
(218.73 67.5851 0)
(219.595 69.6986 0)
(220.597 71.842 0)
(221.711 74.0108 0)
(222.985 76.2015 0)
(224.424 78.4031 0)
(225.996 80.6117 0)
(227.771 82.8177 0)
(229.724 85.0137 0)
(231.863 87.193 0)
(234.223 89.345 0)
(236.804 91.45 0)
(239.577 93.5074 0)
(242.607 95.476 0)
(245.817 97.3727 0)
(249.26 99.1111 0)
(252.806 100.779 0)
(256.6 102.291 0)
(260.595 103.674 0)
(264.883 104.938 0)
(269.436 106.074 0)
(274.09 106.983 0)
(278.571 107.693 0)
(283.165 108.299 0)
(288.462 108.755 0)
(293.441 108.895 0)
(299.177 108.891 0)
(304.063 108.659 0)
(309.434 108.117 0)
(313.969 107.573 0)
(318.939 106.818 0)
(323.414 106.224 0)
(327.884 105.543 0)
(332.019 104.956 0)
(336.24 104.088 0)
(340.032 103.328 0)
(344.252 102.141 0)
(347.722 101.206 0)
(351.619 99.873 0)
(354.778 99.0072 0)
(358.374 97.8238 0)
(361.068 97.0974 0)
(363.858 95.8839 0)
(365.6 95.0085 0)
(367.279 93.7326 0)
(368.966 93.1718 0)
(371.95 92.6459 0)
(376.927 92.1615 0)
(378.662 95.4085 0)
(202.971 3.88375 0)
(205.915 1.34392 0)
(206.095 1.6128 0)
(207.039 1.45465 0)
(208.381 1.02825 0)
(209.534 0.777458 0)
(210.291 0.659362 0)
(210.795 0.740788 0)
(211.138 0.935908 0)
(211.454 1.17986 0)
(211.83 1.42749 0)
(212.299 1.67647 0)
(212.807 1.95529 0)
(213.283 2.28393 0)
(213.702 2.65843 0)
(214.084 3.06139 0)
(214.439 3.49003 0)
(214.77 3.94757 0)
(215.073 4.4386 0)
(215.345 4.95983 0)
(215.58 5.50925 0)
(215.783 6.08113 0)
(215.97 6.67128 0)
(216.159 7.2772 0)
(216.378 7.89346 0)
(216.633 8.516 0)
(216.904 9.14395 0)
(217.163 9.77755 0)
(217.366 10.4188 0)
(217.505 11.068 0)
(217.561 11.7262 0)
(217.551 12.3973 0)
(217.506 13.0773 0)
(217.425 13.7752 0)
(217.338 14.4874 0)
(217.248 15.2236 0)
(217.153 15.9889 0)
(217.052 16.7878 0)
(216.955 17.6221 0)
(216.865 18.4875 0)
(216.772 19.3884 0)
(216.668 20.3243 0)
(216.551 21.2938 0)
(216.421 22.2952 0)
(216.278 23.3271 0)
(216.124 24.3892 0)
(215.958 25.4815 0)
(215.78 26.6059 0)
(215.589 27.7627 0)
(215.387 28.952 0)
(215.176 30.1746 0)
(214.958 31.4309 0)
(214.735 32.7221 0)
(214.51 34.0482 0)
(214.288 35.4079 0)
(214.07 36.8031 0)
(213.861 38.2351 0)
(213.66 39.7048 0)
(213.473 41.2104 0)
(213.31 42.7575 0)
(213.164 44.344 0)
(213.038 45.9694 0)
(212.953 47.6395 0)
(212.896 49.3515 0)
(212.873 51.1066 0)
(212.906 52.9081 0)
(212.981 54.7522 0)
(213.112 56.6405 0)
(213.325 58.5752 0)
(213.59 60.5506 0)
(213.942 62.5706 0)
(214.401 64.6343 0)
(214.932 66.7361 0)
(215.581 68.8795 0)
(216.354 71.0591 0)
(217.229 73.2696 0)
(218.259 75.511 0)
(219.436 77.7764 0)
(220.735 80.0629 0)
(222.23 82.3618 0)
(223.887 84.6617 0)
(225.721 86.9516 0)
(227.764 89.2204 0)
(230.001 91.4598 0)
(232.418 93.6752 0)
(235.077 95.8448 0)
(237.927 97.9721 0)
(241.042 100.012 0)
(244.362 101.999 0)
(247.987 103.818 0)
(251.77 105.558 0)
(255.779 107.103 0)
(259.94 108.531 0)
(264.213 109.768 0)
(268.859 110.919 0)
(273.426 111.777 0)
(278.619 112.593 0)
(283.132 113.203 0)
(288.153 113.6 0)
(292.786 113.876 0)
(297.831 113.993 0)
(303.079 113.938 0)
(308.404 113.653 0)
(313.719 113.057 0)
(318.566 112.366 0)
(323.482 111.511 0)
(328.227 110.544 0)
(332.625 109.554 0)
(337.163 108.415 0)
(340.983 107.513 0)
(345.106 106.365 0)
(348.632 105.543 0)
(352.666 104.396 0)
(355.677 103.695 0)
(358.791 102.492 0)
(360.738 101.572 0)
(362.562 100.172 0)
(364.291 99.3987 0)
(367.298 98.8552 0)
(372.158 98.5619 0)
(373.932 101.198 0)
(203.619 3.22128 0)
(205.956 1.32454 0)
(205.981 1.61967 0)
(206.685 1.5899 0)
(207.951 1.1914 0)
(209.148 0.883583 0)
(209.94 0.696345 0)
(210.471 0.742312 0)
(210.806 0.92761 0)
(211.086 1.17776 0)
(211.411 1.44287 0)
(211.838 1.70587 0)
(212.323 1.9837 0)
(212.787 2.29979 0)
(213.189 2.65935 0)
(213.549 3.04854 0)
(213.883 3.4631 0)
(214.198 3.90682 0)
(214.489 4.38507 0)
(214.753 4.89515 0)
(214.98 5.43494 0)
(215.171 5.9974 0)
(215.334 6.57789 0)
(215.488 7.17237 0)
(215.661 7.77607 0)
(215.871 8.38653 0)
(216.115 9.00436 0)
(216.376 9.63221 0)
(216.611 10.2734 0)
(216.8 10.9276 0)
(216.91 11.5925 0)
(216.947 12.2683 0)
(216.918 12.9561 0)
(216.842 13.6481 0)
(216.745 14.3576 0)
(216.63 15.0823 0)
(216.497 15.8298 0)
(216.344 16.6086 0)
(216.195 17.4192 0)
(216.052 18.2609 0)
(215.906 19.136 0)
(215.751 20.0451 0)
(215.585 20.9883 0)
(215.408 21.9645 0)
(215.219 22.9722 0)
(215.019 24.0106 0)
(214.807 25.0798 0)
(214.583 26.1803 0)
(214.345 27.3131 0)
(214.094 28.4789 0)
(213.832 29.6784 0)
(213.559 30.912 0)
(213.28 32.1796 0)
(212.996 33.4813 0)
(212.71 34.818 0)
(212.427 36.1896 0)
(212.147 37.5978 0)
(211.868 39.0458 0)
(211.604 40.5255 0)
(211.356 42.0465 0)
(211.118 43.609 0)
(210.9 45.2089 0)
(210.714 46.8544 0)
(210.548 48.5415 0)
(210.413 50.2714 0)
(210.324 52.0484 0)
(210.268 53.8679 0)
(210.263 55.7327 0)
(210.327 57.6448 0)
(210.431 59.5984 0)
(210.617 61.5999 0)
(210.893 63.6475 0)
(211.228 65.7353 0)
(211.673 67.8692 0)
(212.222 70.0457 0)
(212.859 72.2623 0)
(213.639 74.522 0)
(214.544 76.8155 0)
(215.561 79.1384 0)
(216.762 81.4876 0)
(218.104 83.8564 0)
(219.611 86.2406 0)
(221.319 88.6329 0)
(223.213 91.0226 0)
(225.295 93.4043 0)
(227.62 95.7528 0)
(230.133 98.0588 0)
(232.877 100.302 0)
(235.817 102.502 0)
(239.03 104.597 0)
(242.379 106.644 0)
(246.034 108.518 0)
(249.865 110.343 0)
(254.027 112.017 0)
(258.368 113.595 0)
(262.817 114.854 0)
(267.468 116.025 0)
(272.193 117 0)
(276.991 117.803 0)
(282.12 118.411 0)
(286.866 118.885 0)
(292.115 119.163 0)
(296.517 119.442 0)
(301.579 119.367 0)
(306.018 119.351 0)
(310.954 119.073 0)
(315.622 118.671 0)
(320.192 118.079 0)
(324.719 117.336 0)
(328.842 116.695 0)
(333.056 115.909 0)
(336.925 115.207 0)
(341.127 114.14 0)
(344.54 113.307 0)
(348.096 112.04 0)
(350.528 111.005 0)
(352.81 109.516 0)
(354.88 108.395 0)
(358.211 107.467 0)
(364.272 106.739 0)
(366.362 110.139 0)
(204.409 2.57117 0)
(206.037 1.31496 0)
(205.893 1.62559 0)
(206.344 1.68363 0)
(207.485 1.33277 0)
(208.717 0.970947 0)
(209.565 0.728711 0)
(210.139 0.761421 0)
(210.482 0.94884 0)
(210.737 1.20589 0)
(211.013 1.48123 0)
(211.392 1.75082 0)
(211.846 2.02278 0)
(212.292 2.3216 0)
(212.675 2.66234 0)
(213.009 3.03542 0)
(213.319 3.43459 0)
(213.612 3.86351 0)
(213.885 4.32776 0)
(214.134 4.82597 0)
(214.351 5.35548 0)
(214.533 5.90886 0)
(214.682 6.48093 0)
(214.813 7.06536 0)
(214.952 7.6574 0)
(215.117 8.25438 0)
(215.317 8.85718 0)
(215.549 9.47057 0)
(215.781 10.1005 0)
(215.994 10.7484 0)
(216.145 11.412 0)
(216.235 12.0892 0)
(216.247 12.7773 0)
(216.187 13.4753 0)
(216.099 14.1785 0)
(215.981 14.8977 0)
(215.828 15.6322 0)
(215.641 16.3934 0)
(215.449 17.1842 0)
(215.258 18.0022 0)
(215.061 18.8509 0)
(214.855 19.7319 0)
(214.64 20.6463 0)
(214.414 21.5936 0)
(214.177 22.5727 0)
(213.931 23.5828 0)
(213.673 24.6235 0)
(213.404 25.6954 0)
(213.12 26.7993 0)
(212.823 27.936 0)
(212.512 29.1059 0)
(212.19 30.3095 0)
(211.858 31.5472 0)
(211.518 32.819 0)
(211.174 34.1255 0)
(210.827 35.4674 0)
(210.479 36.8452 0)
(210.135 38.2582 0)
(209.796 39.7086 0)
(209.467 41.1976 0)
(209.138 42.7337 0)
(208.832 44.3006 0)
(208.545 45.9141 0)
(208.273 47.5721 0)
(208.027 49.273 0)
(207.816 51.0234 0)
(207.63 52.818 0)
(207.487 54.6605 0)
(207.401 56.5531 0)
(207.343 58.4901 0)
(207.361 60.4803 0)
(207.453 62.5202 0)
(207.593 64.6049 0)
(207.837 66.743 0)
(208.166 68.9289 0)
(208.575 71.1601 0)
(209.119 73.4399 0)
(209.768 75.7593 0)
(210.523 78.1181 0)
(211.449 80.5171 0)
(212.494 82.9458 0)
(213.699 85.398 0)
(215.091 87.8642 0)
(216.645 90.3344 0)
(218.375 92.8073 0)
(220.328 95.2723 0)
(222.452 97.7295 0)
(224.801 100.168 0)
(227.365 102.577 0)
(230.181 104.911 0)
(233.181 107.201 0)
(236.505 109.367 0)
(239.941 111.513 0)
(243.673 113.465 0)
(247.531 115.38 0)
(251.681 117.117 0)
(255.987 118.65 0)
(260.664 120.183 0)
(265.444 121.401 0)
(270.536 122.52 0)
(275.38 123.338 0)
(280.741 124.075 0)
(285.697 124.412 0)
(291.125 124.591 0)
(296.297 124.602 0)
(301.504 124.548 0)
(306.67 124.342 0)
(311.396 124.032 0)
(316.357 123.509 0)
(320.965 122.964 0)
(325.531 122.348 0)
(329.757 121.781 0)
(334.205 120.917 0)
(338.038 120.181 0)
(342.258 119.024 0)
(345.155 118.142 0)
(347.726 116.888 0)
(349.864 116.169 0)
(353.267 115.591 0)
(359.321 115.264 0)
(361.14 119.472 0)
(205.327 1.98061 0)
(206.144 1.31544 0)
(205.807 1.597 0)
(206.031 1.70489 0)
(206.994 1.42842 0)
(208.236 1.035 0)
(209.159 0.753614 0)
(209.795 0.780903 0)
(210.161 0.970795 0)
(210.393 1.22903 0)
(210.621 1.50711 0)
(210.948 1.7802 0)
(211.363 2.0486 0)
(211.791 2.33235 0)
(212.157 2.65494 0)
(212.467 3.01152 0)
(212.753 3.39426 0)
(213.023 3.80636 0)
(213.276 4.2538 0)
(213.506 4.73746 0)
(213.707 5.25416 0)
(213.878 5.79733 0)
(214.014 6.36119 0)
(214.132 6.93768 0)
(214.248 7.5214 0)
(214.377 8.10805 0)
(214.535 8.69787 0)
(214.724 9.29601 0)
(214.926 9.91021 0)
(215.13 10.5449 0)
(215.293 11.2001 0)
(215.416 11.874 0)
(215.467 12.5615 0)
(215.442 13.2597 0)
(215.367 13.9695 0)
(215.261 14.682 0)
(215.108 15.4079 0)
(214.907 16.1569 0)
(214.688 16.9325 0)
(214.457 17.7304 0)
(214.215 18.5555 0)
(213.961 19.4106 0)
(213.696 20.2972 0)
(213.42 21.2162 0)
(213.133 22.1669 0)
(212.837 23.1487 0)
(212.53 24.1613 0)
(212.211 25.2052 0)
(211.878 26.2811 0)
(211.531 27.3898 0)
(211.169 28.5319 0)
(210.793 29.7077 0)
(210.406 30.9175 0)
(210.008 32.1613 0)
(209.603 33.4395 0)
(209.192 34.7525 0)
(208.778 36.101 0)
(208.361 37.486 0)
(207.947 38.9083 0)
(207.535 40.3694 0)
(207.131 41.8669 0)
(206.737 43.4055 0)
(206.355 44.9865 0)
(205.977 46.6166 0)
(205.63 48.2818 0)
(205.305 49.9971 0)
(204.999 51.7578 0)
(204.732 53.5665 0)
(204.507 55.4254 0)
(204.305 57.3281 0)
(204.173 59.2862 0)
(204.096 61.2936 0)
(204.059 63.3472 0)
(204.116 65.4577 0)
(204.239 67.6175 0)
(204.433 69.8284 0)
(204.747 72.0961 0)
(205.141 74.4112 0)
(205.634 76.7755 0)
(206.281 79.1902 0)
(207.026 81.6442 0)
(207.921 84.14 0)
(208.984 86.6741 0)
(210.191 89.2377 0)
(211.574 91.8287 0)
(213.172 94.4358 0)
(214.936 97.0524 0)
(216.921 99.6645 0)
(219.119 102.252 0)
(221.543 104.792 0)
(224.161 107.304 0)
(227.058 109.753 0)
(230.105 112.179 0)
(233.493 114.448 0)
(236.997 116.669 0)
(240.816 118.716 0)
(244.795 120.711 0)
(248.97 122.462 0)
(253.36 124.144 0)
(257.828 125.612 0)
(262.51 126.958 0)
(267.266 128.096 0)
(272.43 129.145 0)
(277.309 129.95 0)
(282.778 130.625 0)
(287.516 131.109 0)
(293.032 131.432 0)
(297.784 131.59 0)
(303.273 131.466 0)
(308.251 131.185 0)
(313.226 130.718 0)
(317.769 130.352 0)
(322.6 129.752 0)
(326.734 129.231 0)
(331.434 128.244 0)
(334.862 127.297 0)
(337.823 126.025 0)
(340.216 125.301 0)
(343.739 124.753 0)
(349.737 124.469 0)
(351.6 128.353 0)
(206.403 1.52963 0)
(206.233 1.24896 0)
(205.696 1.47044 0)
(205.785 1.64163 0)
(206.521 1.48975 0)
(207.727 1.11347 0)
(208.736 0.817728 0)
(209.445 0.833288 0)
(209.842 1.01147 0)
(210.05 1.2539 0)
(210.232 1.52106 0)
(210.502 1.79228 0)
(210.872 2.0594 0)
(211.28 2.33082 0)
(211.632 2.63649 0)
(211.921 2.97844 0)
(212.181 3.34873 0)
(212.428 3.74896 0)
(212.66 4.18436 0)
(212.868 4.65703 0)
(213.051 5.16245 0)
(213.204 5.69544 0)
(213.327 6.2493 0)
(213.433 6.81596 0)
(213.533 7.38972 0)
(213.639 7.96472 0)
(213.765 8.54075 0)
(213.915 9.12201 0)
(214.078 9.71644 0)
(214.251 10.3304 0)
(214.398 10.9666 0)
(214.528 11.6254 0)
(214.598 12.3021 0)
(214.607 12.994 0)
(214.56 13.6993 0)
(214.463 14.413 0)
(214.325 15.1281 0)
(214.134 15.8657 0)
(213.904 16.63 0)
(213.649 17.4116 0)
(213.373 18.2157 0)
(213.081 19.046 0)
(212.772 19.9056 0)
(212.45 20.7958 0)
(212.115 21.7167 0)
(211.77 22.6679 0)
(211.414 23.6493 0)
(211.047 24.6614 0)
(210.667 25.705 0)
(210.271 26.781 0)
(209.861 27.8899 0)
(209.435 29.0321 0)
(208.996 30.2079 0)
(208.545 31.4175 0)
(208.083 32.6611 0)
(207.612 33.9391 0)
(207.135 35.2521 0)
(206.653 36.6005 0)
(206.169 37.9856 0)
(205.684 39.4086 0)
(205.2 40.8711 0)
(204.719 42.3739 0)
(204.245 43.9185 0)
(203.781 45.5037 0)
(203.331 47.134 0)
(202.893 48.8125 0)
(202.465 50.54 0)
(202.075 52.3109 0)
(201.71 54.1351 0)
(201.364 56.0051 0)
(201.08 57.9349 0)
(200.832 59.9156 0)
(200.619 61.9451 0)
(200.489 64.0364 0)
(200.406 66.1788 0)
(200.391 68.3778 0)
(200.481 70.6376 0)
(200.632 72.9464 0)
(200.88 75.3109 0)
(201.263 77.7328 0)
(201.725 80.2008 0)
(202.33 82.7207 0)
(203.082 85.2843 0)
(203.957 87.8803 0)
(205.002 90.5114 0)
(206.235 93.1734 0)
(207.61 95.8621 0)
(209.192 98.5699 0)
(210.972 101.283 0)
(212.96 103.995 0)
(215.163 106.71 0)
(217.626 109.395 0)
(220.266 112.052 0)
(223.223 114.623 0)
(226.328 117.188 0)
(229.786 119.615 0)
(233.35 122.013 0)
(237.252 124.215 0)
(241.307 126.343 0)
(245.629 128.295 0)
(250.195 130.148 0)
(254.815 131.618 0)
(259.829 133.122 0)
(264.457 134.301 0)
(269.679 135.403 0)
(274.369 136.245 0)
(279.597 136.977 0)
(284.377 137.635 0)
(289.563 138.038 0)
(294.435 138.242 0)
(299.45 138.133 0)
(303.977 138.138 0)
(309.011 137.983 0)
(313.301 137.97 0)
(318.494 137.503 0)
(322.425 136.821 0)
(325.911 135.587 0)
(328.699 134.696 0)
(332.591 134.125 0)
(339.665 133.917 0)
(341.451 138.86 0)
(207.454 1.16633 0)
(206.355 1.03636 0)
(205.608 1.37976 0)
(205.617 1.57471 0)
(206.084 1.52074 0)
(207.197 1.21125 0)
(208.294 0.909698 0)
(209.077 0.885514 0)
(209.511 1.03389 0)
(209.7 1.25073 0)
(209.843 1.50459 0)
(210.057 1.77742 0)
(210.375 2.04997 0)
(210.757 2.31218 0)
(211.097 2.59783 0)
(211.369 2.92068 0)
(211.608 3.27589 0)
(211.835 3.66372 0)
(212.047 4.08871 0)
(212.235 4.55303 0)
(212.399 5.05026 0)
(212.532 5.57548 0)
(212.639 6.12039 0)
(212.729 6.67794 0)
(212.813 7.24197 0)
(212.902 7.80617 0)
(213.006 8.37013 0)
(213.126 8.93657 0)
(213.254 9.51258 0)
(213.389 10.1048 0)
(213.504 10.7182 0)
(213.614 11.3553 0)
(213.676 12.0133 0)
(213.699 12.6919 0)
(213.672 13.3883 0)
(213.587 14.0959 0)
(213.456 14.809 0)
(213.287 15.5352 0)
(213.063 16.2901 0)
(212.797 17.0586 0)
(212.502 17.8464 0)
(212.181 18.6569 0)
(211.838 19.493 0)
(211.476 20.3571 0)
(211.097 21.25 0)
(210.705 22.1719 0)
(210.301 23.1231 0)
(209.884 24.1043 0)
(209.454 25.1165 0)
(209.008 26.1606 0)
(208.546 27.2374 0)
(208.068 28.3472 0)
(207.575 29.4904 0)
(207.067 30.6672 0)
(206.546 31.8776 0)
(206.014 33.122 0)
(205.473 34.401 0)
(204.924 35.7151 0)
(204.369 37.0653 0)
(203.81 38.4525 0)
(203.248 39.8777 0)
(202.686 41.3423 0)
(202.126 42.8476 0)
(201.569 44.3955 0)
(201.019 45.9874 0)
(200.478 47.6236 0)
(199.951 49.3036 0)
(199.447 51.0322 0)
(198.949 52.8164 0)
(198.476 54.6407 0)
(198.053 56.5222 0)
(197.648 58.457 0)
(197.282 60.4401 0)
(196.982 62.4877 0)
(196.713 64.5854 0)
(196.507 66.7433 0)
(196.387 68.9648 0)
(196.307 71.2384 0)
(196.321 73.5773 0)
(196.443 75.98 0)
(196.627 78.435 0)
(196.947 80.9543 0)
(197.387 83.5292 0)
(197.933 86.1544 0)
(198.641 88.8378 0)
(199.513 91.5711 0)
(200.513 94.343 0)
(201.718 97.1477 0)
(203.103 99.9734 0)
(204.677 102.816 0)
(206.464 105.671 0)
(208.479 108.514 0)
(210.679 111.347 0)
(213.162 114.149 0)
(215.812 116.944 0)
(218.796 119.642 0)
(221.91 122.313 0)
(225.393 124.841 0)
(228.995 127.373 0)
(232.925 129.72 0)
(237.01 132.014 0)
(241.394 134.131 0)
(245.935 136.09 0)
(250.713 137.857 0)
(255.76 139.438 0)
(260.958 140.702 0)
(266.222 141.818 0)
(271.628 142.782 0)
(276.843 143.531 0)
(282.265 144.069 0)
(287.726 144.286 0)
(292.824 144.377 0)
(298.572 144.388 0)
(303.198 144.472 0)
(308.874 144.342 0)
(313.089 144.022 0)
(317.148 143.009 0)
(320.352 142.081 0)
(324.239 141.539 0)
(330.877 141.648 0)
(332.447 146.081 0)
(208.252 0.743534 0)
(206.706 0.866548 0)
(205.638 1.29946 0)
(205.53 1.48671 0)
(205.715 1.53061 0)
(206.659 1.33173 0)
(207.826 1.01099 0)
(208.689 0.930592 0)
(209.169 1.04295 0)
(209.348 1.23195 0)
(209.461 1.47086 0)
(209.621 1.74298 0)
(209.88 2.02069 0)
(210.224 2.27794 0)
(210.551 2.54761 0)
(210.809 2.85722 0)
(211.028 3.20483 0)
(211.236 3.58706 0)
(211.43 4.00651 0)
(211.601 4.46377 0)
(211.746 4.95224 0)
(211.859 5.46692 0)
(211.948 5.99918 0)
(212.019 6.54365 0)
(212.085 7.09361 0)
(212.158 7.64366 0)
(212.245 8.19334 0)
(212.343 8.74414 0)
(212.447 9.30182 0)
(212.549 9.87191 0)
(212.632 10.4604 0)
(212.709 11.0709 0)
(212.745 11.7028 0)
(212.759 12.3588 0)
(212.731 13.0361 0)
(212.653 13.7291 0)
(212.526 14.4349 0)
(212.378 15.1463 0)
(212.166 15.8895 0)
(211.905 16.6459 0)
(211.604 17.4192 0)
(211.269 18.2115 0)
(210.904 19.0262 0)
(210.512 19.866 0)
(210.098 20.7322 0)
(209.665 21.6255 0)
(209.217 22.5463 0)
(208.755 23.4956 0)
(208.279 24.4744 0)
(207.786 25.484 0)
(207.276 26.5251 0)
(206.749 27.5985 0)
(206.205 28.7044 0)
(205.644 29.8433 0)
(205.07 31.0151 0)
(204.481 32.2204 0)
(203.881 33.4593 0)
(203.271 34.7327 0)
(202.651 36.0412 0)
(202.023 37.386 0)
(201.389 38.7683 0)
(200.751 40.1892 0)
(200.109 41.6499 0)
(199.466 43.1519 0)
(198.824 44.697 0)
(198.185 46.2868 0)
(197.553 47.9231 0)
(196.929 49.6075 0)
(196.318 51.3384 0)
(195.724 53.118 0)
(195.163 54.9522 0)
(194.59 56.8523 0)
(194.076 58.7878 0)
(193.602 60.7919 0)
(193.148 62.8485 0)
(192.757 64.9703 0)
(192.428 67.1568 0)
(192.127 69.3959 0)
(191.918 71.706 0)
(191.792 74.0797 0)
(191.716 76.5092 0)
(191.769 79.0115 0)
(191.912 81.5728 0)
(192.148 84.1914 0)
(192.536 86.8759 0)
(193.057 89.6141 0)
(193.693 92.4005 0)
(194.519 95.2422 0)
(195.497 98.1307 0)
(196.65 101.063 0)
(198.011 104.031 0)
(199.577 107.015 0)
(201.331 110.018 0)
(203.342 113.029 0)
(205.54 116.035 0)
(208.034 118.985 0)
(210.679 121.931 0)
(213.678 124.797 0)
(216.781 127.65 0)
(220.248 130.34 0)
(223.817 132.992 0)
(227.686 135.476 0)
(231.756 137.905 0)
(236.092 140.129 0)
(240.589 142.131 0)
(245.41 144.102 0)
(249.991 145.749 0)
(255.2 147.458 0)
(259.822 148.844 0)
(265.169 150.217 0)
(270.209 151.219 0)
(275.327 151.959 0)
(280.791 152.485 0)
(285.537 153.032 0)
(291.015 153.446 0)
(295.468 153.674 0)
(299.837 153.224 0)
(303.402 152.399 0)
(307.209 151.78 0)
(314.71 151.403 0)
(315.923 156.64 0)
(208.88 0.419913 0)
(207.2 0.693818 0)
(205.794 1.17345 0)
(205.464 1.41852 0)
(205.419 1.52311 0)
(206.136 1.40823 0)
(207.327 1.07812 0)
(208.277 0.958272 0)
(208.814 1.03267 0)
(209.001 1.1959 0)
(209.092 1.41928 0)
(209.205 1.68475 0)
(209.4 1.96198 0)
(209.694 2.21562 0)
(210.007 2.47199 0)
(210.254 2.77305 0)