/*--------------------------------*- C++ -*----------------------------------*\
| =========                 |                                                 |
| \\      /  F ield         | OpenFOAM: The Open Source CFD Toolbox           |
|  \\    /   O peration     | Version:  2412                                  |
|   \\  /    A nd           | Website:  www.openfoam.com                      |
|    \\/     M anipulation  |                                                 |
\*---------------------------------------------------------------------------*/
FoamFile
{
    version     2.0;
    format      ascii;
    arch        "LSB;label=32;scalar=64";
    class       volVectorField;
    location    "0.006";
    object      U;
}
// * * * * * * * * * * * * * * * * * * * * * * * * * * * * * * * * * * * * * //

dimensions      [0 1 -1 0 0 0 0];

internalField   nonuniform List<vector> 
9922
(
(197.996 4.1352 0)
(203.484 -0.730883 0)
(207.916 -0.443851 0)
(209.672 -0.0797337 0)
(209.983 -0.00392309 0)
(210 -1.73313e-05 0)
(210 1.24083e-06 0)
(210 4.44798e-07 0)
(210 4.89619e-08 0)
(210 8.68926e-10 0)
(210 -1.00428e-12 0)
(210 8.94129e-14 0)
(210 6.0315e-13 0)
(210 2.85847e-14 0)
(210 -4.66664e-13 0)
(210 -2.71998e-13 0)
(210 -6.15995e-13 0)
(210 -1.50954e-12 0)
(210 -9.97656e-13 0)
(210 -2.34655e-13 0)
(210 5.98206e-15 0)
(210 1.18076e-13 0)
(210 2.12994e-12 0)
(210 1.64777e-12 0)
(210 2.45271e-12 0)
(210 1.53319e-12 0)
(210 3.64658e-12 0)
(210 8.39097e-10 0)
(210 1.7198e-07 0)
(210 2.88237e-05 0)
(209.999 0.00272689 0)
(209.968 0.0832148 0)
(209.769 0.695441 0)
(209.432 2.05596 0)
(209.335 3.15347 0)
(209.582 3.52998 0)
(210.092 3.25072 0)
(211.179 1.63545 0)
(212.428 -0.353076 0)
(213.715 -1.91667 0)
(215.018 -3.15507 0)
(216.365 -4.25246 0)
(217.741 -5.29178 0)
(219.164 -6.27836 0)
(220.605 -7.21833 0)
(222.094 -8.10414 0)
(223.593 -8.95955 0)
(225.131 -9.77081 0)
(226.666 -10.5628 0)
(228.235 -11.3135 0)
(229.793 -12.0529 0)
(231.374 -12.7573 0)
(232.939 -13.4559 0)
(234.517 -14.1237 0)
(236.074 -14.7864 0)
(237.631 -15.4269 0)
(239.162 -16.0677 0)
(240.683 -16.6889 0)
(242.174 -17.3003 0)
(243.65 -17.8876 0)
(245.09 -18.4756 0)
(246.502 -19.0661 0)
(247.872 -19.6567 0)
(249.219 -20.2187 0)
(250.537 -20.7633 0)
(251.822 -21.3079 0)
(253.056 -21.8631 0)
(254.251 -22.4066 0)
(255.412 -22.9261 0)
(256.545 -23.4154 0)
(257.644 -23.884 0)
(258.707 -24.3441 0)
(259.721 -24.8092 0)
(260.686 -25.2762 0)
(261.606 -25.7354 0)
(262.49 -26.1784 0)
(263.341 -26.6035 0)
(264.161 -27.0107 0)
(264.952 -27.4005 0)
(265.715 -27.7753 0)
(266.451 -28.1362 0)
(267.157 -28.4859 0)
(267.838 -28.8229 0)
(268.489 -29.1518 0)
(269.113 -29.4728 0)
(269.701 -29.7876 0)
(270.269 -30.0911 0)
(270.804 -30.3875 0)
(271.323 -30.6732 0)
(271.807 -30.9519 0)
(272.283 -31.218 0)
(272.721 -31.4773 0)
(273.157 -31.724 0)
(273.56 -31.9636 0)
(273.966 -32.1899 0)
(274.332 -32.4093 0)
(274.712 -32.6141 0)
(274.999 -32.8112 0)
(275.334 -32.9972 0)
(275.604 -33.1751 0)
(275.903 -33.3467 0)
(276.183 -33.5113 0)
(276.46 -33.6683 0)
(276.717 -33.8201 0)
(276.979 -33.9614 0)
(277.209 -34.0981 0)
(277.437 -34.2254 0)
(277.582 -34.3427 0)
(277.777 -34.4608 0)
(277.91 -34.5615 0)
(278.092 -34.6753 0)
(278.213 -34.7733 0)
(278.282 -34.8475 0)
(278.315 -34.93 0)
(278.324 -34.994 0)
(278.335 -35.0576 0)
(278.373 -35.1239 0)
(278.454 -35.1848 0)
(278.585 -35.2587 0)
(278.773 -35.3584 0)
(278.885 -35.2623 0)
(198.478 3.83417 0)
(203.761 -0.634532 0)
(208.055 -0.391024 0)
(209.704 -0.0674388 0)
(209.986 -0.00309511 0)
(210 -1.14721e-05 0)
(210 1.23646e-06 0)
(210 3.84201e-07 0)
(210 3.46656e-08 0)
(210 4.48273e-10 0)
(210 -1.48233e-12 0)
(210 7.54281e-14 0)
(210 6.83955e-13 0)
(210 2.60342e-13 0)
(210 -4.90157e-13 0)
(210 -3.31683e-13 0)
(210 -6.6349e-13 0)
(210 -1.30528e-12 0)
(210 -1.27277e-12 0)
(210 -1.6331e-13 0)
(210 -9.45311e-14 0)
(210 -9.42595e-14 0)
(210 1.89008e-12 0)
(210 1.58116e-12 0)
(210 2.87371e-12 0)
(210 1.98111e-12 0)
(210 3.47867e-12 0)
(210 7.08487e-10 0)
(210 1.45027e-07 0)
(210 2.44465e-05 0)
(209.999 0.00237484 0)
(209.97 0.0758201 0)
(209.776 0.662154 0)
(209.427 2.02124 0)
(209.305 3.15896 0)
(209.54 3.56096 0)
(210.027 3.33594 0)
(211.095 1.78319 0)
(212.339 -0.197175 0)
(213.625 -1.76171 0)
(214.923 -2.99473 0)
(216.265 -4.08157 0)
(217.634 -5.10884 0)
(219.048 -6.08323 0)
(220.48 -7.0109 0)
(221.957 -7.88361 0)
(223.443 -8.72587 0)
(224.97 -9.52357 0)
(226.496 -10.3024 0)
(228.057 -11.0396 0)
(229.608 -11.7659 0)
(231.183 -12.4571 0)
(232.743 -13.1428 0)
(234.316 -13.7977 0)
(235.868 -14.4481 0)
(237.42 -15.0765 0)
(238.946 -15.7053 0)
(240.463 -16.3147 0)
(241.951 -16.9147 0)
(243.424 -17.4914 0)
(244.862 -18.0703 0)
(246.273 -18.6522 0)
(247.643 -19.2332 0)
(248.99 -19.7851 0)
(250.307 -20.3208 0)
(251.59 -20.8587 0)
(252.825 -21.4077 0)
(254.023 -21.944 0)
(255.186 -22.4553 0)
(256.32 -22.9366 0)
(257.418 -23.3985 0)
(258.477 -23.8545 0)
(259.487 -24.3176 0)
(260.448 -24.7828 0)
(261.367 -25.2392 0)
(262.25 -25.6789 0)
(263.1 -26.1005 0)
(263.92 -26.5041 0)
(264.712 -26.8901 0)
(265.474 -27.2611 0)
(266.211 -27.6173 0)
(266.919 -27.9607 0)
(267.604 -28.291 0)
(268.256 -28.6152 0)
(268.879 -28.9318 0)
(269.469 -29.2407 0)
(270.039 -29.5382 0)
(270.575 -29.8303 0)
(271.094 -30.1121 0)
(271.579 -30.3873 0)
(272.053 -30.6507 0)
(272.491 -30.9077 0)
(272.925 -31.1525 0)
(273.325 -31.3903 0)
(273.729 -31.6153 0)
(274.091 -31.834 0)
(274.469 -32.0382 0)
(274.75 -32.2344 0)
(275.081 -32.4202 0)
(275.351 -32.5979 0)
(275.647 -32.7696 0)
(275.923 -32.9346 0)
(276.2 -33.0914 0)
(276.448 -33.2434 0)
(276.707 -33.3844 0)
(276.934 -33.5203 0)
(277.158 -33.6481 0)
(277.299 -33.7649 0)
(277.491 -33.8834 0)
(277.621 -33.9837 0)
(277.797 -34.0969 0)
(277.916 -34.1949 0)
(277.982 -34.2686 0)
(278.014 -34.352 0)
(278.023 -34.4152 0)
(278.036 -34.4794 0)
(278.077 -34.5455 0)
(278.162 -34.6068 0)
(278.296 -34.6807 0)
(278.484 -34.7797 0)
(278.596 -34.6833 0)
(199.017 3.54675 0)
(204.063 -0.547828 0)
(208.198 -0.339891 0)
(209.737 -0.0563335 0)
(209.988 -0.0023921 0)
(210 -7.37757e-06 0)
(210 1.18937e-06 0)
(210 3.1516e-07 0)
(210 2.35788e-08 0)
(210 2.34084e-10 0)
(210 -1.15342e-12 0)
(210 2.95839e-13 0)
(210 7.13214e-13 0)
(210 5.50568e-13 0)
(210 -2.86435e-13 0)
(210 -5.70249e-13 0)
(210 -3.70057e-13 0)
(210 -1.40662e-12 0)
(210 -1.16484e-12 0)
(210 -6.75429e-15 0)
(210 -1.28511e-13 0)
(210 -2.73933e-13 0)
(210 1.63833e-12 0)
(210 1.64859e-12 0)
(210 2.89236e-12 0)
(210 2.36598e-12 0)
(210 3.42769e-12 0)
(210 5.96598e-10 0)
(210 1.22065e-07 0)
(210 2.06864e-05 0)
(209.999 0.00206207 0)
(209.972 0.0688811 0)
(209.783 0.629093 0)
(209.424 1.98451 0)
(209.275 3.16202 0)
(209.497 3.59134 0)
(209.962 3.4179 0)
(211.01 1.92948 0)
(212.248 -0.0408782 0)
(213.529 -1.60626 0)
(214.818 -2.83388 0)
(216.151 -3.91003 0)
(217.51 -4.92521 0)
(218.918 -5.88762 0)
(220.343 -6.80357 0)
(221.815 -7.66404 0)
(223.296 -8.49402 0)
(224.818 -9.2788 0)
(226.337 -10.0448 0)
(227.889 -10.7686 0)
(229.432 -11.4818 0)
(230.998 -12.1595 0)
(232.55 -12.8321 0)
(234.115 -13.4741 0)
(235.661 -14.1122 0)
(237.208 -14.7285 0)
(238.73 -15.3454 0)
(240.243 -15.943 0)
(241.728 -16.5315 0)
(243.198 -17.0978 0)
(244.634 -17.6674 0)
(246.043 -18.2403 0)
(247.411 -18.8116 0)
(248.757 -19.3533 0)
(250.074 -19.8804 0)
(251.357 -20.4116 0)
(252.593 -20.954 0)
(253.792 -21.4827 0)
(254.958 -21.986 0)
(256.093 -22.4599 0)
(257.192 -22.916 0)
(258.25 -23.369 0)
(259.258 -23.8308 0)
(260.219 -24.2943 0)
(261.138 -24.7478 0)
(262.023 -25.1844 0)
(262.875 -25.6028 0)
(263.696 -26.0034 0)
(264.488 -26.3865 0)
(265.251 -26.7545 0)
(265.99 -27.1058 0)
(266.701 -27.4434 0)
(267.388 -27.7699 0)
(268.039 -28.0915 0)
(268.664 -28.4034 0)
(269.257 -28.7063 0)
(269.831 -28.9989 0)
(270.369 -29.2874 0)
(270.89 -29.5653 0)
(271.377 -29.8371 0)
(271.853 -30.0976 0)
(272.291 -30.3522 0)
(272.725 -30.5946 0)
(273.125 -30.8307 0)
(273.529 -31.0544 0)
(273.887 -31.2727 0)
(274.264 -31.4759 0)
(274.544 -31.6714 0)
(274.873 -31.8571 0)
(275.144 -32.0353 0)
(275.44 -32.2078 0)
(275.712 -32.3738 0)
(275.99 -32.5307 0)
(276.234 -32.6829 0)
(276.49 -32.8249 0)
(276.718 -32.9611 0)
(276.942 -33.0897 0)
(277.081 -33.2072 0)
(277.271 -33.3261 0)
(277.4 -33.427 0)
(277.574 -33.5402 0)
(277.692 -33.6392 0)
(277.755 -33.7118 0)
(277.784 -33.7962 0)
(277.789 -33.8571 0)
(277.796 -33.9205 0)
(277.831 -33.9846 0)
(277.911 -34.044 0)
(278.042 -34.1162 0)
(278.228 -34.2138 0)
(278.338 -34.1181 0)
(199.55 3.24072 0)
(204.379 -0.452891 0)
(208.347 -0.291479 0)
(209.769 -0.0464332 0)
(209.99 -0.00181293 0)
(210 -4.68627e-06 0)
(210 1.14846e-06 0)
(210 2.44319e-07 0)
(210 1.56481e-08 0)
(210 1.34606e-10 0)
(210 -6.08091e-13 0)
(210 3.42647e-13 0)
(210 4.76521e-13 0)
(210 8.51856e-13 0)
(210 1.01882e-14 0)
(210 -2.49322e-13 0)
(210 -5.19639e-13 0)
(210 -1.34954e-12 0)
(210 -1.06444e-12 0)
(210 -4.57597e-14 0)
(210 7.7805e-15 0)
(210 -5.71673e-13 0)
(210 1.06841e-12 0)
(210 1.28155e-12 0)
(210 2.35368e-12 0)
(210 2.40471e-12 0)
(210 3.14349e-12 0)
(210 5.01846e-10 0)
(210 1.02534e-07 0)
(210 1.74631e-05 0)
(209.999 0.00178499 0)
(209.974 0.0623882 0)
(209.79 0.596328 0)
(209.422 1.94577 0)
(209.246 3.16252 0)
(209.455 3.62113 0)
(209.899 3.49666 0)
(210.924 2.07397 0)
(212.157 0.115334 0)
(213.437 -1.45158 0)
(214.722 -2.67475 0)
(216.049 -3.74079 0)
(217.402 -4.74413 0)
(218.801 -5.69456 0)
(220.216 -6.59852 0)
(221.677 -7.44625 0)
(223.146 -8.2634 0)
(224.656 -9.0349 0)
(226.166 -9.78791 0)
(227.71 -10.4984 0)
(229.245 -11.1988 0)
(230.806 -11.8635 0)
(232.353 -12.5233 0)
(233.913 -13.1527 0)
(235.454 -13.7785 0)
(236.995 -14.3828 0)
(238.513 -14.9878 0)
(240.023 -15.5736 0)
(241.505 -16.1507 0)
(242.972 -16.7065 0)
(244.406 -17.2667 0)
(245.813 -17.8306 0)
(247.182 -18.3923 0)
(248.529 -18.9245 0)
(249.845 -19.4434 0)
(251.128 -19.9676 0)
(252.365 -20.503 0)
(253.568 -21.0241 0)
(254.736 -21.5198 0)
(255.873 -21.9869 0)
(256.97 -22.4378 0)
(258.026 -22.8878 0)
(259.032 -23.3476 0)
(259.991 -23.8084 0)
(260.91 -24.2582 0)
(261.796 -24.6909 0)
(262.649 -25.1058 0)
(263.47 -25.5035 0)
(264.263 -25.8841 0)
(265.027 -26.2486 0)
(265.767 -26.5951 0)
(266.48 -26.9291 0)
(267.165 -27.2543 0)
(267.814 -27.5732 0)
(268.441 -27.8788 0)
(269.037 -28.1755 0)
(269.613 -28.4638 0)
(270.152 -28.7482 0)
(270.675 -29.0213 0)
(271.164 -29.2888 0)
(271.64 -29.5457 0)
(272.078 -29.7968 0)
(272.512 -30.036 0)
(272.912 -30.27 0)
(273.318 -30.4916 0)
(273.671 -30.7086 0)
(274.044 -30.91 0)
(274.325 -31.1041 0)
(274.651 -31.2896 0)
(274.923 -31.4681 0)
(275.22 -31.6405 0)
(275.486 -31.8069 0)
(275.762 -31.9631 0)
(276.003 -32.1146 0)
(276.255 -32.2572 0)
(276.481 -32.393 0)
(276.702 -32.5215 0)
(276.839 -32.6386 0)
(277.028 -32.7579 0)
(277.153 -32.8586 0)
(277.324 -32.9721 0)
(277.437 -33.0714 0)
(277.496 -33.1441 0)
(277.523 -33.2299 0)
(277.526 -33.2911 0)
(277.533 -33.356 0)
(277.571 -33.421 0)
(277.655 -33.4817 0)
(277.788 -33.5549 0)
(277.975 -33.653 0)
(278.086 -33.557 0)
(200.144 2.95023 0)
(204.723 -0.368123 0)
(208.497 -0.245005 0)
(209.801 -0.0377606 0)
(209.992 -0.00135126 0)
(210 -2.9837e-06 0)
(210 1.1034e-06 0)
(210 1.80376e-07 0)
(210 1.06503e-08 0)
(210 9.03332e-11 0)
(210 -1.21475e-12 0)
(210 1.92889e-13 0)
(210 3.59144e-13 0)
(210 6.76471e-13 0)
(210 6.645e-14 0)
(210 -1.738e-13 0)
(210 -8.01571e-13 0)
(210 -1.56618e-12 0)
(210 -7.10213e-13 0)
(210 3.99895e-13 0)
(210 9.30511e-14 0)
(210 -8.98407e-13 0)
(210 9.84734e-13 0)
(210 1.03263e-12 0)
(210 2.12478e-12 0)
(210 2.09301e-12 0)
(210 2.92299e-12 0)
(210 4.20924e-10 0)
(210 8.59479e-08 0)
(210 1.47061e-05 0)
(209.999 0.0015403 0)
(209.977 0.0563312 0)
(209.797 0.563933 0)
(209.421 1.90507 0)
(209.218 3.16082 0)
(209.412 3.64952 0)
(209.836 3.57274 0)
(210.836 2.21656 0)
(212.064 0.272014 0)
(213.339 -1.29644 0)
(214.616 -2.51525 0)
(215.934 -3.57105 0)
(217.277 -4.5625 0)
(218.669 -5.50109 0)
(220.077 -6.39354 0)
(221.533 -7.22923 0)
(222.997 -8.03435 0)
(224.502 -8.79317 0)
(226.005 -9.53359 0)
(227.541 -10.231 0)
(229.068 -10.9184 0)
(230.62 -11.5699 0)
(232.159 -12.2168 0)
(233.712 -12.8335 0)
(235.246 -13.4472 0)
(236.782 -14.0393 0)
(238.296 -14.6323 0)
(239.802 -15.2063 0)
(241.282 -15.7721 0)
(242.745 -16.3175 0)
(244.177 -16.8682 0)
(245.583 -17.4228 0)
(246.952 -17.9748 0)
(248.298 -18.4975 0)
(249.614 -19.0083 0)
(250.897 -19.5255 0)
(252.136 -20.0534 0)
(253.341 -20.5667 0)
(254.512 -21.0549 0)
(255.65 -21.5156 0)
(256.747 -21.9621 0)
(257.802 -22.4097 0)
(258.808 -22.8678 0)
(259.768 -23.3258 0)
(260.691 -23.7718 0)
(261.58 -24.2008 0)
(262.436 -24.6127 0)
(263.26 -25.0083 0)
(264.055 -25.3865 0)
(264.821 -25.7475 0)
(265.564 -26.0911 0)
(266.275 -26.4249 0)
(266.957 -26.7502 0)
(267.607 -27.0652 0)
(268.239 -27.3645 0)
(268.839 -27.6575 0)
(269.416 -27.9433 0)
(269.958 -28.224 0)
(270.484 -28.4928 0)
(270.975 -28.7569 0)
(271.453 -29.0102 0)
(271.893 -29.258 0)
(272.33 -29.4942 0)
(272.73 -29.7266 0)
(273.137 -29.9461 0)
(273.487 -30.1615 0)
(273.859 -30.361 0)
(274.142 -30.5545 0)
(274.469 -30.74 0)
(274.742 -30.9189 0)
(275.041 -31.091 0)
(275.301 -31.257 0)
(275.575 -31.4127 0)
(275.818 -31.5636 0)
(276.067 -31.7067 0)
(276.293 -31.8429 0)
(276.514 -31.9712 0)
(276.651 -32.089 0)
(276.838 -32.2084 0)
(276.962 -32.3098 0)
(277.134 -32.424 0)
(277.246 -32.5247 0)
(277.303 -32.5969 0)
(277.326 -32.6842 0)
(277.324 -32.7443 0)
(277.326 -32.8091 0)
(277.358 -32.8729 0)
(277.437 -32.9324 0)
(277.566 -33.0043 0)
(277.751 -33.1016 0)
(277.86 -33.0069 0)
(200.742 2.6415 0)
(205.082 -0.277809 0)
(208.648 -0.201761 0)
(209.831 -0.030222 0)
(209.994 -0.000992974 0)
(210 -1.84142e-06 0)
(210 9.46578e-07 0)
(210 1.48634e-07 0)
(210 8.07387e-09 0)
(210 6.82826e-11 0)
(210 -1.15014e-12 0)
(210 1.43496e-13 0)
(210 -1.81261e-13 0)
(210 9.09466e-13 0)
(210 9.37051e-15 0)
(210 -6.84422e-14 0)
(210 -5.65649e-13 0)
(210 -1.61538e-12 0)
(210 -7.09065e-13 0)
(210 4.90093e-13 0)
(210 8.70349e-14 0)
(210 -1.04934e-12 0)
(210 1.11568e-12 0)
(210 1.46759e-12 0)
(210 2.17759e-12 0)
(210 1.8067e-12 0)
(210 3.3792e-12 0)
(210 3.53292e-10 0)
(210 7.18898e-08 0)
(210 1.23533e-05 0)
(209.999 0.00132488 0)
(209.979 0.0506985 0)
(209.805 0.531985 0)
(209.421 1.8624 0)
(209.192 3.15671 0)
(209.369 3.67706 0)
(209.775 3.64565 0)
(210.747 2.35693 0)
(211.971 0.428816 0)
(213.245 -1.14183 0)
(214.517 -2.3572 0)
(215.83 -3.40333 0)
(217.167 -4.38315 0)
(218.551 -5.30996 0)
(219.949 -6.1907 0)
(221.394 -7.01398 0)
(222.846 -7.80661 0)
(224.34 -8.5524 0)
(225.833 -9.28011 0)
(227.36 -9.96448 0)
(228.88 -10.6392 0)
(230.427 -11.2778 0)
(231.96 -11.912 0)
(233.508 -12.5163 0)
(235.037 -13.1179 0)
(236.569 -13.698 0)
(238.078 -14.279 0)
(239.581 -14.8411 0)
(241.058 -15.3956 0)
(242.519 -15.9305 0)
(243.948 -16.4716 0)
(245.354 -17.0169 0)
(246.724 -17.5594 0)
(248.071 -18.0733 0)
(249.387 -18.5763 0)
(250.671 -19.0861 0)
(251.912 -19.6062 0)
(253.12 -20.1116 0)
(254.294 -20.5928 0)
(255.433 -21.0479 0)
(256.53 -21.4904 0)
(257.584 -21.9357 0)
(258.589 -22.3914 0)
(259.55 -22.8457 0)
(260.474 -23.287 0)
(261.366 -23.7117 0)
(262.225 -24.1202 0)
(263.05 -24.5131 0)
(263.847 -24.8881 0)
(264.616 -25.246 0)
(265.358 -25.5892 0)
(266.066 -25.9247 0)
(266.746 -26.2485 0)
(267.399 -26.5579 0)
(268.034 -26.8526 0)
(268.635 -27.1443 0)
(269.211 -27.4278 0)
(269.755 -27.704 0)
(270.282 -27.969 0)
(270.774 -28.2294 0)
(271.253 -28.4787 0)
(271.694 -28.7231 0)
(272.133 -28.9563 0)
(272.533 -29.1866 0)
(272.942 -29.403 0)
(273.289 -29.6159 0)
(273.658 -29.8133 0)
(273.945 -30.0057 0)
(274.273 -30.1904 0)
(274.545 -30.369 0)
(274.845 -30.5396 0)
(275.101 -30.7039 0)
(275.371 -30.8587 0)
(275.617 -31.0084 0)
(275.864 -31.1509 0)
(276.087 -31.2868 0)
(276.307 -31.415 0)
(276.443 -31.5327 0)
(276.629 -31.6524 0)
(276.751 -31.754 0)
(276.921 -31.8688 0)
(277.029 -31.97 0)
(277.082 -32.0425 0)
(277.101 -32.1315 0)
(277.097 -32.1925 0)
(277.098 -32.2592 0)
(277.131 -32.3245 0)
(277.211 -32.3857 0)
(277.342 -32.4589 0)
(277.528 -32.5574 0)
(277.638 -32.4624 0)
(201.407 2.35011 0)
(205.467 -0.198241 0)
(208.797 -0.160606 0)
(209.859 -0.0237082 0)
(209.996 -0.000719699 0)
(210 -9.03242e-07 0)
(210 7.60943e-07 0)
(210 1.24802e-07 0)
(210 6.60645e-09 0)
(210 4.92642e-11 0)
(210 -8.08767e-13 0)
(210 4.59726e-13 0)
(210 -3.88158e-13 0)
(210 3.22613e-13 0)
(210 -1.76938e-13 0)
(210 -2.93331e-13 0)
(210 -3.12111e-13 0)
(210 -1.32994e-12 0)
(210 -7.23459e-13 0)
(210 2.15759e-13 0)
(210 -2.20506e-14 0)
(210 -1.32399e-12 0)
(210 2.16555e-13 0)
(210 1.50603e-12 0)
(210 2.06092e-12 0)
(210 1.92142e-12 0)
(210 2.8778e-12 0)
(210 2.9616e-10 0)
(210 5.99966e-08 0)
(210 1.03501e-05 0)
(209.999 0.00113583 0)
(209.98 0.0454773 0)
(209.813 0.50056 0)
(209.422 1.81779 0)
(209.167 3.15006 0)
(209.324 3.70394 0)
(209.716 3.7152 0)
(210.657 2.49502 0)
(211.876 0.586191 0)
(213.146 -0.986784 0)
(214.411 -2.19887 0)
(215.714 -3.23526 0)
(217.041 -4.20341 0)
(218.417 -5.11851 0)
(219.809 -5.98793 0)
(221.248 -6.79938 0)
(222.695 -7.58019 0)
(224.184 -8.31352 0)
(225.67 -9.02891 0)
(227.19 -9.70041 0)
(228.702 -10.3624 0)
(230.24 -10.9881 0)
(231.766 -11.6095 0)
(233.305 -12.2012 0)
(234.828 -12.7907 0)
(236.354 -13.3587 0)
(237.86 -13.9275 0)
(239.36 -14.4777 0)
(240.834 -15.021 0)
(242.292 -15.5455 0)
(243.719 -16.077 0)
(245.124 -16.6126 0)
(246.493 -17.1456 0)
(247.841 -17.6507 0)
(249.158 -18.146 0)
(250.442 -18.6484 0)
(251.685 -19.1602 0)
(252.897 -19.6576 0)
(254.074 -20.1319 0)
(255.213 -20.5818 0)
(256.311 -21.0208 0)
(257.365 -21.464 0)
(258.371 -21.9173 0)
(259.335 -22.3677 0)
(260.264 -22.8042 0)
(261.161 -23.2249 0)
(262.024 -23.6302 0)
(262.854 -24.0203 0)
(263.656 -24.3924 0)
(264.426 -24.7494 0)
(265.167 -25.0948 0)
(265.872 -25.4316 0)
(266.554 -25.7518 0)
(267.212 -26.0571 0)
(267.848 -26.3519 0)
(268.447 -26.6444 0)
(269.024 -26.9254 0)
(269.57 -27.1982 0)
(270.099 -27.4606 0)
(270.592 -27.7184 0)
(271.074 -27.9641 0)
(271.517 -28.2059 0)
(271.96 -28.4363 0)
(272.36 -28.6643 0)
(272.771 -28.8772 0)
(273.119 -29.0876 0)
(273.488 -29.2829 0)
(273.781 -29.4746 0)
(274.112 -29.6582 0)
(274.382 -29.8359 0)
(274.683 -30.0041 0)
(274.938 -30.1664 0)
(275.207 -30.3204 0)
(275.457 -30.4692 0)
(275.705 -30.6111 0)
(275.928 -30.7474 0)
(276.148 -30.8759 0)
(276.285 -30.9948 0)
(276.471 -31.1146 0)
(276.592 -31.2171 0)
(276.764 -31.3326 0)
(276.873 -31.4354 0)
(276.925 -31.5081 0)
(276.943 -31.5991 0)
(276.935 -31.66 0)
(276.931 -31.7269 0)
(276.957 -31.7917 0)
(277.032 -31.8519 0)
(277.159 -31.9242 0)
(277.343 -32.0225 0)
(277.451 -31.9284 0)
(202.089 2.04087 0)
(205.869 -0.116888 0)
(208.943 -0.122986 0)
(209.884 -0.0180941 0)
(209.997 -0.000512485 0)
(210 -4.40291e-07 0)
(210 6.13829e-07 0)
(210 1.04464e-07 0)
(210 5.45519e-09 0)
(210 3.59379e-11 0)
(210 -4.42606e-13 0)
(210 2.80065e-13 0)
(210 -3.08358e-13 0)
(210 1.02212e-13 0)
(210 -1.09502e-13 0)
(210 -7.67226e-13 0)
(210 -5.11752e-13 0)
(210 -1.51244e-12 0)
(210 -6.01977e-13 0)
(210 4.20244e-13 0)
(210 6.1894e-14 0)
(210 -1.40572e-12 0)
(210 -5.45248e-13 0)
(210 1.12693e-12 0)
(210 2.1937e-12 0)
(210 2.22683e-12 0)
(210 2.5361e-12 0)
(210 2.473e-10 0)
(210 4.99539e-08 0)
(210 8.64856e-06 0)
(210 0.000970462 0)
(209.982 0.0406536 0)
(209.821 0.46973 0)
(209.424 1.77127 0)
(209.143 3.14065 0)
(209.28 3.72976 0)
(209.657 3.78146 0)
(210.567 2.63112 0)
(211.781 0.743884 0)
(213.05 -0.832053 0)
(214.31 -2.0417 0)
(215.608 -3.06891 0)
(216.929 -4.02568 0)
(218.297 -4.92915 0)
(219.679 -5.78712 0)
(221.109 -6.58646 0)
(222.543 -7.3551 0)
(224.021 -8.07567 0)
(225.497 -8.77857 0)
(227.008 -9.43721 0)
(228.513 -10.0867 0)
(230.045 -10.6996 0)
(231.565 -11.3085 0)
(233.1 -11.888 0)
(234.618 -12.4654 0)
(236.139 -13.0212 0)
(237.641 -13.5778 0)
(239.138 -14.1161 0)
(240.609 -14.6482 0)
(242.064 -15.1625 0)
(243.49 -15.6842 0)
(244.894 -16.2101 0)
(246.265 -16.7338 0)
(247.615 -17.2305 0)
(248.932 -17.7184 0)
(250.218 -18.2131 0)
(251.464 -18.7164 0)
(252.679 -19.2056 0)
(253.858 -19.6735 0)
(254.999 -20.1187 0)
(256.097 -20.5547 0)
(257.151 -20.9959 0)
(258.159 -21.4461 0)
(259.126 -21.8919 0)
(260.059 -22.3231 0)
(260.959 -22.739 0)
(261.827 -23.1403 0)
(262.661 -23.5266 0)
(263.466 -23.8962 0)
(264.236 -24.2539 0)
(264.974 -24.6016 0)
(265.68 -24.9373 0)
(266.366 -25.2536 0)
(267.025 -25.5583 0)
(267.657 -25.8563 0)
(268.253 -26.1491 0)
(268.83 -26.427 0)
(269.377 -26.6971 0)
(269.906 -26.9574 0)
(270.4 -27.2124 0)
(270.885 -27.4546 0)
(271.33 -27.6941 0)
(271.776 -27.921 0)
(272.178 -28.1461 0)
(272.59 -28.3552 0)
(272.941 -28.5625 0)
(273.31 -28.7553 0)
(273.608 -28.9455 0)
(273.942 -29.1271 0)
(274.21 -29.3029 0)
(274.51 -29.468 0)
(274.768 -29.6281 0)
(275.037 -29.781 0)
(275.289 -29.929 0)
(275.538 -30.0701 0)
(275.76 -30.2066 0)
(275.98 -30.3353 0)
(276.117 -30.4546 0)
(276.303 -30.5743 0)
(276.423 -30.677 0)
(276.596 -30.7928 0)
(276.703 -30.8959 0)
(276.752 -30.9687 0)
(276.767 -31.0608 0)
(276.756 -31.1227 0)
(276.75 -31.1915 0)
(276.777 -31.2579 0)
(276.853 -31.3198 0)
(276.982 -31.394 0)
(277.168 -31.4939 0)
(277.277 -31.3994 0)
(202.849 1.75302 0)
(206.294 -0.0477107 0)
(209.083 -0.0880696 0)
(209.906 -0.0132925 0)
(209.998 -0.000356301 0)
(210 -3.04138e-07 0)
(210 4.7839e-07 0)
(210 8.41909e-08 0)
(210 4.27355e-09 0)
(210 2.52497e-11 0)
(210 -4.85789e-13 0)
(210 6.61835e-13 0)
(210 -4.33872e-13 0)
(210 -1.3823e-13 0)
(210 -1.01164e-13 0)
(210 -3.77955e-13 0)
(210 -6.55545e-13 0)
(210 -1.78577e-12 0)
(210 -8.48456e-13 0)
(210 3.93022e-13 0)
(210 -1.35615e-13 0)
(210 -1.17558e-12 0)
(210 -4.88307e-13 0)
(210 7.84823e-13 0)
(210 1.90699e-12 0)
(210 2.15731e-12 0)
(210 2.69572e-12 0)
(210 2.05996e-10 0)
(210 4.14918e-08 0)
(210 7.20691e-06 0)
(210 0.000826293 0)
(209.984 0.0362124 0)
(209.83 0.439572 0)
(209.427 1.72287 0)
(209.12 3.12857 0)
(209.235 3.75445 0)
(209.599 3.84442 0)
(210.475 2.76518 0)
(211.684 0.902185 0)
(212.949 -0.67689 0)
(214.202 -1.88433 0)
(215.491 -2.90236 0)
(216.802 -3.8477 0)
(218.162 -4.73959 0)
(219.537 -5.58641 0)
(220.96 -6.37412 0)
(222.39 -7.13116 0)
(223.862 -7.83945 0)
(225.332 -8.53024 0)
(226.837 -9.17623 0)
(228.334 -9.81322 0)
(229.857 -10.4133 0)
(231.369 -11.0097 0)
(232.896 -11.5767 0)
(234.408 -12.1419 0)
(235.924 -12.6855 0)
(237.422 -13.2298 0)
(238.916 -13.7562 0)
(240.384 -14.2772 0)
(241.837 -14.7812 0)
(243.261 -15.2931 0)
(244.664 -15.8092 0)
(246.036 -16.3234 0)
(247.386 -16.8118 0)
(248.704 -17.2923 0)
(249.991 -17.7789 0)
(251.24 -18.2734 0)
(252.459 -18.7545 0)
(253.64 -19.2162 0)
(254.783 -19.6573 0)
(255.882 -20.0905 0)
(256.938 -20.5295 0)
(257.948 -20.9764 0)
(258.919 -21.4172 0)
(259.858 -21.8431 0)
(260.764 -22.2543 0)
(261.638 -22.6515 0)
(262.479 -23.0344 0)
(263.287 -23.4032 0)
(264.058 -23.7627 0)
(264.797 -24.1111 0)
(265.506 -24.4444 0)
(266.195 -24.7596 0)
(266.851 -25.0684 0)
(267.479 -25.3701 0)
(268.073 -25.6618 0)
(268.653 -25.9378 0)
(269.2 -26.2073 0)
(269.732 -26.4661 0)
(270.228 -26.7189 0)
(270.717 -26.9585 0)
(271.165 -27.1961 0)
(271.616 -27.4197 0)
(272.02 -27.6419 0)
(272.434 -27.8476 0)
(272.789 -28.0523 0)
(273.161 -28.2428 0)
(273.464 -28.4319 0)
(273.802 -28.6109 0)
(274.067 -28.7844 0)
(274.369 -28.9467 0)
(274.632 -29.1052 0)
(274.902 -29.2576 0)
(275.155 -29.4055 0)
(275.407 -29.5464 0)
(275.631 -29.6832 0)
(275.852 -29.8118 0)
(275.991 -29.9318 0)
(276.177 -30.0511 0)
(276.298 -30.1548 0)
(276.472 -30.2708 0)
(276.581 -30.3752 0)
(276.63 -30.448 0)
(276.645 -30.5416 0)
(276.632 -30.6031 0)
(276.622 -30.6718 0)
(276.643 -30.7376 0)
(276.714 -30.7987 0)
(276.84 -30.8722 0)
(277.023 -30.9719 0)
(277.13 -30.8789 0)
(203.643 1.44976 0)
(206.738 0.0179198 0)
(209.218 -0.0574254 0)
(209.925 -0.0092635 0)
(209.998 -0.000240491 0)
(210 -2.03841e-07 0)
(210 3.41578e-07 0)
(210 6.36358e-08 0)
(210 3.16485e-09 0)
(210 1.61929e-11 0)
(210 -5.86981e-13 0)
(210 7.74496e-13 0)
(210 -5.26178e-13 0)
(210 -1.52239e-13 0)
(210 6.42887e-14 0)
(210 -2.57717e-13 0)
(210 -5.3357e-13 0)
(210 -1.39192e-12 0)
(210 -1.01308e-12 0)
(210 1.89947e-13 0)
(210 -1.99153e-13 0)
(210 -1.23099e-12 0)
(210 -9.31681e-13 0)
(210 1.02036e-12 0)
(210 1.90884e-12 0)
(210 1.55474e-12 0)
(210 2.80787e-12 0)
(210 1.7126e-10 0)
(210 3.43765e-08 0)
(210 5.98862e-06 0)
(210 0.000701041 0)
(209.986 0.0321379 0)
(209.838 0.410158 0)
(209.432 1.67265 0)
(209.098 3.1135 0)
(209.191 3.77808 0)
(209.54 3.90404 0)
(210.383 2.897 0)
(211.587 1.06087 0)
(212.85 -0.521854 0)
(214.099 -1.72788 0)
(215.382 -2.73727 0)
(216.687 -3.67149 0)
(218.04 -4.5519 0)
(219.406 -5.38749 0)
(220.819 -6.16338 0)
(222.237 -6.90855 0)
(223.698 -7.60431 0)
(225.157 -8.28282 0)
(226.653 -8.91612 0)
(228.143 -9.54069 0)
(229.66 -10.1281 0)
(231.167 -10.7122 0)
(232.689 -11.267 0)
(234.196 -11.8202 0)
(235.708 -12.3515 0)
(237.202 -12.8834 0)
(238.693 -13.3978 0)
(240.158 -13.908 0)
(241.608 -14.4018 0)
(243.031 -14.9038 0)
(244.434 -15.4099 0)
(245.808 -15.9148 0)
(247.16 -16.3952 0)
(248.48 -16.8684 0)
(249.769 -17.347 0)
(251.021 -17.8323 0)
(252.242 -18.3054 0)
(253.426 -18.7611 0)
(254.571 -19.1983 0)
(255.672 -19.6291 0)
(256.73 -20.0659 0)
(257.743 -20.5091 0)
(258.718 -20.9446 0)
(259.662 -21.3646 0)
(260.575 -21.7705 0)
(261.454 -22.1628 0)
(262.299 -22.5425 0)
(263.11 -22.9108 0)
(263.882 -23.2712 0)
(264.624 -23.6181 0)
(265.337 -23.9496 0)
(266.025 -24.2676 0)
(266.675 -24.582 0)
(267.299 -24.8852 0)
(267.895 -25.1753 0)
(268.475 -25.4512 0)
(269.022 -25.721 0)
(269.555 -25.9778 0)
(270.054 -26.2289 0)
(270.547 -26.4663 0)
(270.998 -26.7022 0)
(271.452 -26.9227 0)
(271.857 -27.1419 0)
(272.272 -27.3444 0)
(272.632 -27.5464 0)
(273.006 -27.7347 0)
(273.312 -27.9221 0)
(273.653 -28.0977 0)
(273.917 -28.2684 0)
(274.219 -28.4284 0)
(274.488 -28.5856 0)
(274.759 -28.7376 0)
(275.012 -28.8854 0)
(275.267 -29.0252 0)
(275.493 -29.1613 0)
(275.714 -29.289 0)
(275.855 -29.4088 0)
(276.042 -29.5278 0)
(276.162 -29.6316 0)
(276.337 -29.7477 0)
(276.444 -29.8518 0)
(276.491 -29.9243 0)
(276.504 -30.0178 0)
(276.489 -30.0796 0)
(276.478 -30.1492 0)
(276.499 -30.2163 0)
(276.571 -30.279 0)
(276.698 -30.3545 0)
(276.884 -30.4566 0)
(276.991 -30.3631 0)
(204.527 1.17539 0)
(207.206 0.0686849 0)
(209.348 -0.0306214 0)
(209.942 -0.00596152 0)
(209.999 -0.000157263 0)
(210 -1.89487e-07 0)
(210 2.23051e-07 0)
(210 4.53296e-08 0)
(210 2.1387e-09 0)
(210 8.62102e-12 0)
(210 -3.42056e-13 0)
(210 5.32684e-13 0)
(210 -4.82968e-13 0)
(210 1.48318e-13 0)
(210 1.99116e-14 0)
(210 -6.94452e-13 0)
(210 -4.18385e-13 0)
(210 -1.17051e-12 0)
(210 -6.64413e-13 0)
(210 3.88507e-13 0)
(210 -3.22832e-13 0)
(210 -1.29915e-12 0)
(210 -1.10081e-12 0)
(210 5.73103e-13 0)
(210 1.62902e-12 0)
(210 1.17277e-12 0)
(210 2.67817e-12 0)
(210 1.42198e-10 0)
(210 2.84083e-08 0)
(210 4.96178e-06 0)
(210 0.000592603 0)
(209.987 0.0284135 0)
(209.847 0.381556 0)
(209.438 1.62068 0)
(209.079 3.09537 0)
(209.147 3.80067 0)
(209.482 3.96029 0)
(210.29 3.02651 0)
(211.488 1.22013 0)
(212.748 -0.366361 0)
(213.989 -1.57125 0)
(215.264 -2.57208 0)
(216.559 -3.49516 0)
(217.904 -4.36411 0)
(219.262 -5.18872 0)
(220.669 -5.95318 0)
(222.081 -6.68695 0)
(223.537 -7.3706 0)
(224.99 -8.03717 0)
(226.48 -8.65799 0)
(227.962 -9.27023 0)
(229.471 -9.84504 0)
(230.97 -10.4166 0)
(232.484 -10.9591 0)
(233.985 -11.5001 0)
(235.491 -12.0191 0)
(236.982 -12.5386 0)
(238.469 -13.0411 0)
(239.932 -13.5404 0)
(241.38 -14.0241 0)
(242.8 -14.5162 0)
(244.203 -15.0121 0)
(245.578 -15.5075 0)
(246.931 -15.9799 0)
(248.253 -16.4457 0)
(249.544 -16.9159 0)
(250.799 -17.3919 0)
(252.024 -17.857 0)
(253.211 -18.3071 0)
(254.357 -18.7408 0)
(255.46 -19.1691 0)
(256.521 -19.6035 0)
(257.538 -20.0427 0)
(258.519 -20.4726 0)
(259.47 -20.8867 0)
(260.389 -21.287 0)
(261.276 -21.6749 0)
(262.126 -22.0522 0)
(262.941 -22.4204 0)
(263.718 -22.7803 0)
(264.464 -23.1253 0)
(265.179 -23.4577 0)
(265.864 -23.7813 0)
(266.51 -24.0997 0)
(267.135 -24.4028 0)
(267.732 -24.6928 0)
(268.313 -24.9704 0)
(268.86 -25.2411 0)
(269.398 -25.4964 0)
(269.898 -25.7472 0)
(270.395 -25.9838 0)
(270.848 -26.2185 0)
(271.304 -26.4368 0)
(271.712 -26.6535 0)
(272.128 -26.8535 0)
(272.493 -27.0535 0)
(272.87 -27.2402 0)
(273.179 -27.4263 0)
(273.523 -27.5983 0)
(273.787 -27.7668 0)
(274.09 -27.9256 0)
(274.366 -28.0824 0)
(274.64 -28.2339 0)
(274.892 -28.3811 0)
(275.151 -28.5191 0)
(275.383 -28.654 0)
(275.606 -28.7809 0)
(275.75 -28.9008 0)
(275.937 -29.0195 0)
(276.057 -29.124 0)
(276.234 -29.2395 0)
(276.343 -29.344 0)
(276.393 -29.4164 0)
(276.409 -29.5108 0)
(276.394 -29.5727 0)
(276.382 -29.6422 0)
(276.399 -29.7091 0)
(276.467 -29.7709 0)
(276.592 -29.8456 0)
(276.776 -29.9476 0)
(276.882 -29.8545 0)
(205.477 0.88599 0)
(207.703 0.107036 0)
(209.475 -0.00937043 0)
(209.956 -0.00336632 0)
(209.999 -9.96473e-05 0)
(210 -1.72926e-07 0)
(210 1.32361e-07 0)
(210 2.96083e-08 0)
(210 1.23797e-09 0)
(210 5.03253e-12 0)
(210 -7.39492e-13 0)
(210 1.05763e-12 0)
(210 -8.64605e-13 0)
(210 2.94036e-13 0)
(210 5.26557e-14 0)
(210 -9.4752e-13 0)
(210 -4.29171e-13 0)
(210 -1.31209e-12 0)
(210 -3.15347e-13 0)
(210 9.13741e-13 0)
(210 -2.952e-13 0)
(210 -1.57727e-12 0)
(210 -1.12224e-12 0)
(210 4.02074e-13 0)
(210 1.76376e-12 0)
(210 1.21001e-12 0)
(210 2.7565e-12 0)
(210 1.18141e-10 0)
(210 2.34128e-08 0)
(210 4.09863e-06 0)
(210 0.000499056 0)
(209.988 0.0250217 0)
(209.855 0.353831 0)
(209.445 1.56704 0)
(209.06 3.07397 0)
(209.103 3.82225 0)
(209.423 4.01315 0)
(210.197 3.15355 0)
(211.389 1.37979 0)
(212.647 -0.210812 0)
(213.883 -1.41529 0)
(215.154 -2.40811 0)
(216.442 -3.32036 0)
(217.78 -4.17795 0)
(219.129 -4.99155 0)
(220.526 -5.74446 0)
(221.927 -6.46664 0)
(223.371 -7.13798 0)
(224.814 -7.79247 0)
(226.294 -8.40075 0)
(227.769 -9.00069 0)
(229.271 -9.563 0)
(230.765 -10.1223 0)
(232.274 -10.6526 0)
(233.771 -11.1815 0)
(235.273 -11.6881 0)
(236.76 -12.1953 0)
(238.244 -12.6859 0)
(239.704 -13.1744 0)
(241.15 -13.6482 0)
(242.569 -14.1302 0)
(243.973 -14.6159 0)
(245.35 -15.1018 0)
(246.706 -15.5664 0)
(248.03 -16.0249 0)
(249.323 -16.4866 0)
(250.581 -16.9533 0)
(251.809 -17.4104 0)
(252.999 -17.855 0)
(254.148 -18.2853 0)
(255.254 -18.7113 0)
(256.318 -19.1431 0)
(257.34 -19.578 0)