/*--------------------------------*- C++ -*----------------------------------*\
| =========                 |                                                 |
| \\      /  F ield         | OpenFOAM: The Open Source CFD Toolbox           |
|  \\    /   O peration     | Version:  2412                                  |
|   \\  /    A nd           | Website:  www.openfoam.com                      |
|    \\/     M anipulation  |                                                 |
\*---------------------------------------------------------------------------*/
FoamFile
{
    version     2.0;
    format      ascii;
    arch        "LSB;label=32;scalar=64";
    class       volScalarField;
    location    "0.056";
    object      T;
}
// * * * * * * * * * * * * * * * * * * * * * * * * * * * * * * * * * * * * * //

dimensions      [0 0 0 1 0 0 0];

internalField   nonuniform List<scalar> 
9816
(
227.133
227.148
227.161
227.172
227.18
227.185
227.186
227.185
227.182
227.177
227.171
227.162
227.152
227.14
227.124
227.106
227.083
227.057
227.025
226.988
226.946
226.9
226.854
226.812
226.779
226.759
226.755
226.771
226.844
227.004
227.263
227.605
228.015
228.489
229.034
229.655
230.364
231.175
232.081
233.018
233.91
234.727
225.683
225.669
225.654
225.638
225.622
225.606
225.591
225.576
225.562
225.548
225.534
225.518
225.496
225.473
225.44
225.4
225.353
225.303
225.256
225.219
225.199
225.196
225.215
225.289
225.447
225.701
226.043
226.459
226.935
227.467
228.07
228.749
229.51
230.319
231.147
231.917
232.597
233.109
233.486
233.739
233.878
233.91
225.026
225.015
225.004
224.994
224.984
224.975
224.967
224.959
224.953
224.943
224.926
224.907
224.881
224.853
224.823
224.796
224.776
224.767
224.768
224.789
224.845
224.965
225.147
225.403
225.734
226.164
226.694
227.336
228.069
228.877
229.708
230.52
231.254
231.879
232.379
232.72
232.888
233.005
233.108
233.147
233.144
233.102
224.633
224.626
224.621
224.615
224.61
224.606
224.601
224.595
224.586
224.573
224.554
224.533
224.511
224.491
224.476
224.471
224.476
224.501
224.565
224.683
224.871
225.134
225.492
225.956
226.535
227.217
227.985
228.802
229.621
230.386
231.044
231.574
231.968
232.2
232.309
232.399
232.464
232.486
232.467
232.426
232.375
232.307
224.35
224.346
224.343
224.341
224.339
224.336
224.331
224.324
224.313
224.3
224.286
224.273
224.265
224.263
224.268
224.289
224.345
224.452
224.626
224.886
225.252
225.738
226.349
227.067
227.865
228.69
229.493
230.21
230.8
231.259
231.566
231.711
231.803
231.886
231.919
231.924
231.899
231.854
231.799
231.73
231.659
231.589
224.133
224.132
224.131
224.129
224.127
224.122
224.116
224.109
224.1
224.092
224.087
224.086
224.089
224.103
224.138
224.217
224.358
224.578
224.911
225.374
225.974
226.699
227.514
228.362
229.177
229.901
230.48
230.869
231.142
231.335
231.409
231.407
231.414
231.421
231.422
231.407
231.368
231.3
231.214
231.121
231.034
230.96
223.974
223.974
223.973
223.971
223.967
223.963
223.96
223.958
223.955
223.951
223.951
223.961
223.983
224.012
224.085
224.244
224.482
224.851
225.378
226.042
226.834
227.698
228.555
229.331
229.983
230.454
230.716
230.884
231.016
231.071
231.069
231.044
231.031
231.012
230.986
230.946
230.89
230.818
230.738
230.657
230.582
230.518
223.852
223.852
223.852
223.852
223.849
223.846
223.845
223.847
223.848
223.848
223.851
223.873
223.914
223.971
224.114
224.365
224.728
225.261
225.952
226.758
227.634
228.489
229.25
229.845
230.236
230.508
230.674
230.718
230.712
230.725
230.736
230.743
230.736
230.708
230.653
230.579
230.495
230.413
230.341
230.285
230.243
230.213
223.752
223.753
223.753
223.753
223.753
223.752
223.751
223.754
223.762
223.769
223.774
223.807
223.883
223.999
224.223
224.591
225.097
225.771
226.575
227.438
228.284
229.023
229.62
230.03
230.227
230.353
230.45
230.484
230.481
230.462
230.451
230.438
230.417
230.385
230.338
230.277
230.208
230.138
230.074
230.019
229.975
229.939
223.666
223.666
223.666
223.667
223.669
223.672
223.673
223.675
223.688
223.709
223.729
223.78
223.911
224.114
224.441
224.943
225.588
226.366
227.217
228.051
228.786
229.357
229.781
230.021
230.094
230.147
230.208
230.245
230.256
230.245
230.215
230.181
230.14
230.093
230.042
229.991
229.941
229.894
229.849
229.805
229.764
229.725
223.591
223.592
223.594
223.594
223.596
223.601
223.608
223.617
223.627
223.655
223.717
223.818
224.006
224.322
224.778
225.396
226.152
226.979
227.804
228.534
229.111
229.536
229.78
229.864
229.922
229.985
230.019
230.031
230.021
229.995
229.969
229.937
229.899
229.856
229.81
229.761
229.711
229.662
229.616
229.573
229.533
229.497
223.524
223.526
223.527
223.53
223.532
223.536
223.544
223.558
223.582
223.627
223.72
223.887
224.156
224.571
225.139
225.846
226.645
227.459
228.202
228.817
229.241
229.502
229.679
229.766
229.777
229.775
229.786
229.799
229.805
229.802
229.784
229.745
229.691
229.628
229.564
229.506
229.457
229.418
229.388
229.364
229.342
229.321
223.463
223.465
223.466
223.469
223.473
223.478
223.487
223.504
223.539
223.606
223.729
223.946
224.284
224.769
225.4
226.147
226.941
227.71
228.37
228.869
229.223
229.44
229.515
229.544
229.584
229.614
229.628
229.628
229.614
229.588
229.555
229.512
229.463
229.413
229.364
229.319
229.278
229.24
229.204
229.171
229.139
229.107
223.409
223.411
223.413
223.415
223.419
223.426
223.437
223.457
223.499
223.581
223.73
223.974
224.351
224.868
225.525
226.274
227.052
227.772
228.373
228.833
229.132
229.258
229.328
229.393
229.425
229.435
229.428
229.415
229.403
229.386
229.364
229.331
229.288
229.237
229.183
229.128
229.078
229.033
228.995
228.963
228.936
228.913
223.365
223.368
223.37
223.372
223.377
223.385
223.398
223.423
223.469
223.562
223.725
223.988
224.385
224.92
225.582
226.323
227.075
227.763
228.33
228.725
228.969
229.13
229.206
229.214
229.219
229.233
229.245
229.252
229.249
229.231
229.196
229.147
229.09
229.032
228.977
228.931
228.892
228.861
228.834
228.81
228.786
228.762
223.327
223.329
223.331
223.333
223.338
223.347
223.36
223.388
223.441
223.547
223.724
224.008
224.421
224.97
225.635
226.366
227.093
227.744
228.272
228.622
228.83
228.978
229.05
229.055
229.046
229.056
229.069
229.077
229.079
229.065
229.03
228.977
228.916
228.852
228.793
228.745
228.707
228.679
228.658
228.64
228.623
228.603
223.293
223.294
223.296
223.299
223.306
223.315
223.331
223.365
223.428
223.548
223.743
224.052
224.488
225.055
225.725
226.442
227.141
227.75
228.216
228.54
228.751
228.836
228.857
228.89
228.92
228.936
228.941
228.93
228.907
228.875
228.833
228.784
228.733
228.684
228.638
228.598
228.561
228.527
228.497
228.467
228.44
228.413
223.266
223.268
223.27
223.274
223.281
223.293
223.313
223.354
223.429
223.567
223.788
224.132
224.598
225.192
225.867
226.573
227.23
227.781
228.206
228.487
228.615
228.689
228.751
228.779
228.784
228.775
228.765
228.754
228.737
228.712
228.675
228.627
228.571
228.513
228.458
228.408
228.365
228.33
228.302
228.279
228.26
228.243
223.242
223.243
223.246
223.251
223.259
223.272
223.297
223.346
223.437
223.596
223.849
224.225
224.726
225.342
226.021
226.703
227.319
227.821
228.166
228.381
228.525
228.59
228.594
228.598
228.609
228.619
228.622
228.615
228.59
228.546
228.488
228.423
228.359
228.302
228.254
228.216
228.187
228.163
228.141
228.121
228.1
228.077
223.222
223.224
223.227
223.233
223.242
223.257
223.286
223.341
223.443
223.618
223.893
224.29
224.808
225.429
226.1
226.756
227.334
227.796
228.096
228.266
228.388
228.45
228.455
228.444
228.447
228.452
228.453
228.447
228.423
228.378
228.318
228.248
228.179
228.118
228.067
228.028
227.999
227.977
227.96
227.944
227.928
227.909
223.203
223.205
223.209
223.215
223.225
223.242
223.273
223.332
223.439
223.62
223.9
224.3
224.818
225.434
226.094
226.733
227.283
227.719
228.009
228.146
228.23
228.296
228.321
228.321
228.308
228.301
228.293
228.278
228.254
228.216
228.163
228.101
228.036
227.974
227.919
227.873
227.837
227.809
227.788
227.771
227.757
227.743
223.191
223.194
223.197
223.203
223.213
223.23
223.262
223.319
223.425
223.602
223.877
224.269
224.776
225.378
226.018
226.638
227.172
227.576
227.855
228.03
228.096
228.114
228.141
228.165
228.175
228.174
228.159
228.133
228.093
228.045
227.99
227.934
227.88
227.832
227.788
227.75
227.715
227.683
227.654
227.628
227.604
227.581
223.18
223.183
223.186
223.192
223.202
223.217
223.246
223.299
223.395
223.561
223.818
224.19
224.669
225.244
225.859
226.462
226.982
227.395
227.688
227.85
227.921
227.976
228.009
228.017
228.008
228
227.988
227.972
227.946
227.909
227.86
227.805
227.747
227.691
227.64
227.596
227.56
227.53
227.505
227.485
227.466
227.449
223.171
223.174
223.177
223.182
223.192
223.206
223.229
223.277
223.359
223.507
223.734
224.074
224.515
225.057
225.646
226.238
226.759
227.184
227.492
227.663
227.74
227.802
227.842
227.852
227.843
227.833
227.822
227.809
227.79
227.76
227.719
227.668
227.612
227.555
227.502
227.455
227.416
227.385
227.359
227.339
227.322
227.307
223.164
223.167
223.17
223.174
223.182
223.194
223.214
223.254
223.323
223.448
223.647
223.946
224.35
224.852
225.416
225.989
226.517
226.951
227.263
227.455
227.581
227.645
227.657
227.659
227.665
227.67
227.672
227.666
227.647
227.61
227.563
227.508
227.453
227.403
227.36
227.323
227.293
227.266
227.242
227.218
227.195
227.171
223.157
223.159
223.162
223.166
223.172
223.183
223.2
223.232
223.29
223.393
223.566
223.826
224.193
224.652
225.186
225.739
226.263
226.703
227.043
227.261
227.378
227.454
227.498
227.507
227.502
227.497
227.495
227.491
227.48
227.458
227.423
227.378
227.327
227.275
227.228
227.186
227.151
227.122
227.097
227.076
227.057
227.037
223.152
223.154
223.157
223.16
223.166
223.175
223.19
223.214
223.263
223.347
223.496
223.72
224.049
224.466
224.967
225.497
226.015
226.459
226.81
227.058
227.193
227.253
227.299
227.331
227.34
227.337
227.325
227.315
227.305
227.289
227.265
227.234
227.195
227.151
227.105
227.061
227.021
226.986
226.956
226.93
226.908
226.889
223.149
223.151
223.154
223.157
223.163
223.172
223.186
223.207
223.249
223.321
223.45
223.648
223.941
224.326
224.793
225.301
225.803
226.25
226.601
226.847
227.01
227.095
227.119
227.137
227.156
227.166
227.171
227.166
227.152
227.132
227.106
227.075
227.04
227.003
226.967
226.931
226.897
226.865
226.834
226.805
226.778
226.752
223.145
223.148
223.15
223.154
223.159
223.168
223.181
223.202
223.243
223.313
223.436
223.628
223.907
224.275
224.717
225.2
225.677
226.106
226.443
226.678
226.837
226.922
226.944
226.955
226.974
226.989
226.997
226.996
226.985
226.965
226.941
226.911
226.879
226.845
226.813
226.781
226.75
226.719
226.69
226.661
226.632
226.604
223.14
223.143
223.145
223.149
223.153
223.162
223.175
223.196
223.238
223.309
223.436
223.631
223.913
224.281
224.715
225.182
225.631
226.025
226.335
226.546
226.671
226.753
226.795
226.804
226.804
226.806
226.812
226.814
226.812
226.802
226.782
226.753
226.717
226.679
226.642
226.607
226.577
226.55
226.526
226.503
226.481
226.458
223.134
223.137
223.14
223.143
223.148
223.157
223.171
223.193
223.239
223.315
223.449
223.651
223.943
224.311
224.741
225.189
225.612
225.972
226.245
226.42
226.527
226.596
226.625
226.627
226.627
226.631
226.636
226.639
226.636
226.624
226.602
226.571
226.536
226.5
226.465
226.434
226.407
226.383
226.362
226.341
226.32
226.298
223.128
223.13
223.133
223.136
223.141
223.151
223.166
223.192
223.241
223.325
223.469
223.683
223.983
224.352
224.773
225.197
225.587
225.909
226.141
226.285
226.378
226.429
226.442
226.442
226.446
226.454
226.458
226.46
226.453
226.436
226.411
226.381
226.349
226.317
226.288
226.263
226.239
226.218
226.197
226.177
226.155
226.133
223.122
223.125
223.127
223.131
223.137
223.147
223.163
223.192
223.245
223.337
223.489
223.711
224.014
224.378
224.783
225.181
225.538
225.824
226.023
226.14
226.214
226.256
226.268
226.267
226.267
226.271
226.273
226.274
226.268
226.254
226.231
226.203
226.173
226.143
226.116
226.092
226.071
226.051
226.033
226.014
225.996
225.976
223.118
223.12
223.123
223.127
223.133
223.143
223.16
223.191
223.246
223.342
223.497
223.721
224.021
224.374
224.76
225.129
225.452
225.702
225.878
225.979
226.033
226.068
226.084
226.087
226.085
226.082
226.081
226.079
226.074
226.064
226.048
226.025
226
225.973
225.947
225.923
225.9
225.881
225.863
225.846
225.829
225.813
223.113
223.116
223.119
223.122
223.129
223.14
223.158
223.19
223.249
223.347
223.504
223.725
224.017
224.353
224.714
225.05
225.34
225.561
225.714
225.799
225.848
225.878
225.89
225.892
225.89
225.888
225.888
225.886
225.883
225.873
225.858
225.839
225.816
225.792
225.769
225.748
225.728
225.709
225.693
225.676
225.66
225.644
223.111
223.113
223.116
223.12
223.128
223.14
223.158
223.193
223.254
223.356
223.515
223.733
224.014
224.33
224.659
224.961
225.217
225.407
225.538
225.61
225.65
225.674
225.686
225.688
225.686
225.684
225.683
225.681
225.677
225.668
225.655
225.638
225.618
225.597
225.575
225.554
225.535
225.517
225.5
225.483
225.467
225.451
223.109
223.111
223.114
223.119
223.127
223.14
223.16
223.199
223.264
223.373
223.534
223.752
224.02
224.315
224.612
224.877
225.093
225.25
225.352
225.409
225.443
225.461
225.466
225.467
225.466
225.466
225.464
225.462
225.456
225.445
225.43
225.412
225.393
225.373
225.353
225.333
225.315
225.297
225.28
225.263
225.247
225.23
223.108
223.111
223.114
223.119
223.129
223.144
223.167
223.212
223.284
223.404
223.57
223.79
224.045
224.317
224.575
224.794
224.966
225.082
225.156
225.197
225.219
225.228
225.231
225.233
225.231
225.231
225.227
225.22
225.208
225.194
225.177
225.158
225.138
225.118
225.099
225.08
225.061
225.043
225.025
225.008
224.991
224.974
223.107
223.11
223.114
223.121
223.132
223.15
223.181
223.235
223.322
223.455
223.631
223.85
224.087
224.326
224.533
224.704
224.822
224.901
224.944
224.967
224.977
224.981
224.983
224.982
224.981
224.975
224.965
224.951
224.934
224.915
224.895
224.874
224.853
224.833
224.813
224.794
224.775
224.757
224.74
224.723
224.706
224.69
223.108
223.111
223.116
223.126
223.14
223.163
223.205
223.273
223.381
223.527
223.715
223.921
224.132
224.32
224.475
224.585
224.657
224.697
224.718
224.726
224.73
224.731
224.728
224.724
224.714
224.7
224.681
224.661
224.638
224.615
224.593
224.57
224.549
224.528
224.508
224.489
224.471
224.454
224.438
224.422
224.407
224.392
223.108
223.113
223.12
223.132
223.151
223.184
223.24
223.328
223.454
223.612
223.797
223.979
224.149
224.282
224.38
224.437
224.47
224.485
224.491
224.493
224.49
224.486
224.476
224.462
224.443
224.42
224.395
224.369
224.343
224.318
224.294
224.272
224.25
224.23
224.211
224.193
224.176
224.16
224.145
224.131
224.117
224.103
223.107
223.112
223.122
223.137
223.161
223.206
223.275
223.381
223.516
223.676
223.839
223.989
224.11
224.195
224.245
224.27
224.281
224.284
224.284
224.28
224.273
224.259
224.241
224.218
224.192
224.164
224.136
224.108
224.082
224.057
224.033
224.011
223.99
223.971
223.953
223.936
223.92
223.906
223.892
223.879
223.867
223.855
223.107
223.114
223.125
223.143
223.174
223.226
223.306
223.417
223.552
223.698
223.837
223.953
224.035
224.084
224.109
224.119
224.123
224.122
224.119
224.111
224.098
224.08
224.057
224.031
224.004
223.976
223.949
223.922
223.897
223.873
223.851
223.83
223.811
223.793
223.776
223.76
223.745
223.732
223.719
223.707
223.695
223.684
223.106
223.114
223.126
223.145
223.18
223.235
223.318
223.428
223.556
223.688
223.806
223.897
223.954
223.987
224.001
224.008
224.01
224.009
224.004
223.995
223.982
223.965
223.943
223.92
223.895
223.87
223.845
223.821
223.798
223.776
223.756
223.737
223.718
223.701
223.685
223.67
223.656
223.643
223.631
223.619
223.608
223.597
223.105
223.113
223.126
223.146
223.181
223.236
223.318
223.422
223.54
223.658
223.759
223.836
223.886
223.915
223.929
223.936
223.938
223.937
223.934
223.927
223.917
223.902
223.884
223.865
223.843
223.821
223.799
223.778
223.756
223.736
223.717
223.698
223.681
223.664
223.648
223.633
223.619
223.606
223.594
223.582
223.571
223.56
223.105
223.113
223.126
223.145
223.18
223.232
223.309
223.405
223.514
223.622
223.717
223.79
223.84
223.871
223.887
223.894
223.898
223.897
223.896
223.891
223.883
223.872
223.857
223.84
223.821
223.801
223.78
223.76
223.74
223.721
223.702
223.684
223.667
223.65
223.635
223.62
223.607
223.594
223.582
223.57
223.559
223.548
223.105
223.113
223.125
223.143
223.176
223.225
223.297
223.387
223.49
223.594
223.687
223.761
223.813
223.845
223.863
223.871
223.875
223.876
223.875
223.872
223.865
223.855
223.842
223.827
223.809
223.791
223.771
223.752
223.733
223.714
223.696
223.678
223.662
223.646
223.631
223.617
223.603
223.59
223.578
223.567
223.556
223.545
223.105
223.113
223.124
223.142
223.173
223.221
223.289
223.377
223.477
223.578
223.67
223.744
223.796
223.829
223.847
223.856
223.86
223.861
223.86
223.857
223.852
223.843
223.831
223.817
223.8
223.783
223.764
223.745
223.727
223.709
223.691
223.674
223.658
223.643
223.628
223.614
223.601
223.589
223.577
223.566
223.555
223.544
223.105
223.113
223.125
223.142
223.173
223.221
223.288
223.375
223.473
223.572
223.662
223.733
223.784
223.815
223.833
223.841
223.845
223.846
223.845
223.843
223.838
223.83
223.819
223.805
223.789
223.773
223.755
223.737
223.719
223.702
223.685
223.668
223.653
223.638
223.624
223.61
223.597
223.585
223.574
223.563
223.553
223.543
223.106
223.114
223.126
223.144
223.175
223.223
223.291
223.377
223.474
223.57
223.656
223.723
223.77
223.799
223.815
223.823
223.827
223.828
223.827
223.824
223.819
223.811
223.801
223.788
223.773
223.757
223.741
223.724
223.707
223.69
223.674
223.658
223.643
223.629
223.616
223.603
223.59
223.579
223.568
223.558
223.547
223.538
223.107
223.116
223.128
223.146
223.179
223.228
223.297
223.382
223.477
223.57
223.65
223.712
223.754
223.779
223.793
223.8
223.803
223.803
223.802
223.799
223.794
223.786
223.776
223.764
223.75
223.735
223.72
223.704
223.688
223.672
223.657
223.642
223.628
223.615
223.602
223.59
223.578
223.567
223.557
223.547
223.537
223.528
223.108
223.117
223.13
223.15
223.185
223.235
223.306
223.39
223.482
223.568
223.641
223.696
223.731
223.753
223.763
223.768
223.771
223.77
223.769
223.765
223.76
223.752
223.742
223.73
223.717
223.703
223.689
223.674
223.659
223.645
223.631
223.617
223.604
223.591
223.579
223.568
223.557
223.547
223.537
223.528
223.519
223.51
223.107
223.117
223.131
223.153
223.19
223.243
223.315
223.397
223.484
223.563
223.627
223.673
223.702
223.718
223.726
223.729
223.73
223.729
223.727
223.723
223.717
223.709
223.699
223.688
223.675
223.663
223.649
223.636
223.622
223.609
223.596
223.584
223.572
223.561
223.55
223.54
223.53
223.52
223.512
223.503
223.495
223.487
223.105
223.115
223.129
223.154
223.192
223.246
223.317
223.397
223.478
223.549
223.604
223.641
223.664
223.675
223.681
223.684
223.683
223.682
223.679
223.674
223.668
223.659
223.649
223.639
223.627
223.615
223.603
223.591
223.58
223.568
223.557
223.546
223.535
223.525
223.515
223.506
223.498
223.489
223.482
223.474
223.467
223.46
223.101
223.111
223.126
223.152
223.19
223.245
223.314
223.39
223.464
223.526
223.573
223.603
223.621
223.629
223.633
223.635
223.634
223.632
223.629
223.623
223.616
223.608
223.599
223.589
223.578
223.568
223.557
223.546
223.536
223.526
223.516
223.506
223.497
223.488
223.48
223.472
223.464
223.457
223.45
223.444
223.437
223.431
223.096
223.106
223.122
223.147
223.185
223.237
223.302
223.372
223.439
223.495
223.536
223.562
223.577
223.585
223.589
223.589
223.589
223.587
223.583
223.578
223.572
223.564
223.556
223.547
223.538
223.529
223.52
223.51
223.502
223.493
223.484
223.476
223.468
223.46
223.453
223.445
223.439
223.432
223.426
223.42
223.415
223.409
223.091
223.1
223.114
223.137
223.171
223.218
223.277
223.34
223.402
223.453
223.492
223.516
223.531
223.539
223.542
223.544
223.543
223.542
223.539
223.536
223.531
223.525
223.518
223.511
223.503
223.496
223.488
223.48
223.472
223.465
223.457
223.45
223.442
223.435
223.429
223.422
223.416
223.41
223.405
223.4
223.395
223.39
223.083
223.091
223.103
223.123
223.152
223.192
223.244
223.301
223.358
223.407
223.446
223.473
223.49
223.499
223.505
223.507
223.507
223.507
223.506
223.504
223.501
223.497
223.492
223.486
223.481
223.474
223.468
223.461
223.454
223.448
223.441
223.435
223.429
223.423
223.417
223.412
223.407
223.402
223.397
223.393
223.389
223.384
223.077
223.084
223.094
223.109
223.133
223.165
223.209
223.258
223.31
223.358
223.398
223.428
223.448
223.461
223.468
223.473
223.475
223.475
223.475
223.474
223.473
223.47
223.467
223.463
223.458
223.452
223.447
223.441
223.436
223.43
223.425
223.419
223.414
223.41
223.405
223.4
223.396
223.392
223.388
223.384
223.381
223.377
223.071
223.076
223.084
223.095
223.113
223.139
223.174
223.217
223.262
223.308
223.349
223.382
223.407
223.424
223.434
223.441
223.445
223.446
223.447
223.446
223.446
223.444
223.442
223.439
223.436
223.432
223.428
223.424
223.419
223.415
223.411
223.407
223.403
223.399
223.395
223.391
223.387
223.384
223.38
223.377
223.374
223.37
223.062
223.066
223.072
223.08
223.093
223.114
223.141
223.177
223.218
223.261
223.301
223.337
223.365
223.385
223.399
223.408
223.414
223.417
223.418
223.419
223.419
223.418
223.417
223.416
223.414
223.411
223.409
223.406
223.403
223.4
223.396
223.393
223.39
223.386
223.383
223.38
223.376
223.373
223.37
223.367
223.364
223.361
223.053
223.055
223.059
223.066
223.076
223.09
223.111
223.139
223.175
223.213
223.253
223.289
223.32
223.344
223.361
223.373
223.381
223.386
223.389
223.391
223.392
223.392
223.392
223.392
223.391
223.39
223.388
223.386
223.384
223.382
223.379
223.377
223.374
223.371
223.368
223.365
223.362
223.359
223.356
223.353
223.35
223.347
223.041
223.043
223.044
223.048
223.054
223.063
223.077
223.097
223.123
223.155
223.19
223.225
223.257
223.285
223.307
223.323
223.335
223.344
223.35
223.354
223.357
223.359
223.36
223.361
223.361
223.361
223.361
223.36
223.359
223.358
223.356
223.354
223.352
223.35
223.348
223.346
223.343
223.341
223.338
223.336
223.333
223.331
223.027
223.027
223.027
223.028
223.03
223.034
223.041
223.052
223.068
223.09
223.117
223.146
223.177
223.205
223.231
223.253
223.271
223.285
223.296
223.304
223.311
223.316
223.32
223.323
223.325
223.327
223.328
223.329
223.329
223.329
223.329
223.329
223.328
223.327
223.326
223.325
223.323
223.322
223.32
223.318
223.317
223.315
223.011
223.01
223.01
223.01
223.009
223.01
223.011
223.015
223.021
223.032
223.046
223.065
223.087
223.111
223.136
223.159
223.181
223.2
223.216
223.23
223.241
223.25
223.258
223.264
223.269
223.273
223.277
223.28
223.283
223.285
223.287
223.288
223.29
223.291
223.292
223.292
223.292
223.292
223.292
223.292
223.292
223.291
222.991
222.991
222.99
222.989
222.987
222.986
222.985
222.984
222.985
222.986
222.989
222.997
223.008
223.022
223.04
223.058
223.077
223.094
223.11
223.124
223.137
223.148
223.158
223.166
223.174
223.181
223.187
223.192
223.198
223.203
223.207
223.211
223.215
223.219
223.222
223.225
223.228
223.231
223.233
223.235
223.237
223.239
222.985
222.986
222.987
222.987
222.987
222.987
222.986
222.986
222.986
222.986
222.986
222.987
222.989
222.993
222.999
223.006
223.016
223.026
223.037
223.048
223.058
223.067
223.075
223.083
223.09
223.097
223.103
223.108
223.113
223.118
223.123
223.127
223.131
223.135
223.139
223.143
223.146
223.149
223.152
223.155
223.158
223.161
222.981
222.982
222.982
222.982
222.981
222.981
222.98
222.98
222.979
222.978
222.977
222.975
222.973
222.971
222.97
222.97
222.971
222.973
222.976
222.98
222.985
222.991
222.997
223.004
223.011
223.017
223.024
223.03
223.037
223.043
223.048
223.054
223.059
223.064
223.068
223.073
223.077
223.081
223.085
223.088
223.092
223.095
222.98
222.98
222.98
222.98
222.98
222.98
222.98
222.98
222.98
222.98
222.979
222.978
222.977
222.976
222.975
222.975
222.975
222.975
222.976
222.977
222.979
222.98
222.982
222.984
222.985
222.987
222.989
222.991
222.993
222.995
222.997
222.999
223.001
223.003
223.005
223.007
223.009
223.011
223.013
223.015
223.018
223.02
222.992
222.992
222.993
222.994
222.995
222.995
222.996
222.996
222.996
222.996
222.995
222.995
222.994
222.993
222.992
222.991
222.99
222.989
222.988
222.987
222.986
222.986
222.986
222.986
222.986
222.987
222.987
222.987
222.988
222.988
222.988
222.989
222.989
222.99
222.99
222.99
222.991
222.991
222.991
222.992
222.992
222.992
223.011
223.011
223.011
223.012
223.012
223.012
223.012
223.012
223.011
223.011
223.011
223.011
223.011
223.011
223.011
223.011
223.011
223.011
223.01
223.01
223.01
223.01
223.01
223.01
223.01
223.01
223.01
223.01
223.011
223.011
223.011
223.012
223.012
223.013
223.013
223.013
223.014
223.014
223.015
223.015
223.015
223.016
223.031
223.031
223.031
223.032
223.032
223.033
223.033
223.034
223.035
223.035
223.036
223.037
223.038
223.039
223.04
223.041
223.041
223.042
223.043
223.043
223.043
223.044
223.044
223.044
223.044
223.044
223.044
223.044
223.044
223.043
223.043
223.043
223.043
223.043
223.043
223.043
223.043
223.043
223.043
223.043
223.043
223.043
223.052
223.053
223.054
223.055
223.056
223.057
223.059
223.06
223.061
223.061
223.062
223.063
223.065
223.066
223.067
223.068
223.069
223.069
223.07
223.07
223.071
223.071
223.071
223.072
223.072
223.072
223.072
223.073
223.072
223.072
223.073
223.072
223.072
223.073
223.072
223.072
223.073
223.072
223.072
223.072
223.072
223.072
223.073
223.074
223.076
223.077
223.079
223.08
223.081
223.082
223.083
223.084
223.085
223.086
223.087
223.088
223.089
223.09
223.09
223.091
223.092
223.092
223.093
223.094
223.093
223.094
223.095
223.095
223.095
223.096
223.095
223.096
223.096
223.096
223.096
223.097
223.097
223.097
223.097
223.097
223.097
223.097
223.097
223.097
223.089
223.091
223.093
223.095
223.096
223.098
223.099
223.1
223.101
223.102
223.103
223.104
223.105
223.106
223.106
223.107
223.108
223.109
223.11
223.11
223.111
223.112
223.112
223.113
223.113
223.114
223.114
223.114
223.115
223.115
223.115
223.116
223.116
223.116
223.116
223.117
223.117
223.117
223.117
223.118
223.118
223.118
223.103
223.105
223.107
223.109
223.11
223.112
223.113
223.114
223.116
223.117
223.118
223.119
223.12
223.12
223.121
223.122
223.123
223.124
223.125
223.125
223.126
223.127
223.127
223.128
223.128
223.129
223.129
223.13
223.13
223.13
223.131
223.131
223.131
223.132
223.132
223.132
223.133
223.133
223.133
223.133
223.134
223.134
223.115
223.117
223.119
223.12
223.122
223.124
223.125
223.126
223.128
223.129
223.13
223.131
223.132
223.133
223.134
223.135
223.135
223.136
223.137
223.138
223.138
223.139
223.14
223.14
223.141
223.141
223.142
223.142
223.143
223.143
223.143
223.144
223.144
223.144
223.145
223.145
223.145
223.145
223.146
223.146
223.146
223.147
223.126
223.128
223.129
223.131
223.133
223.134
223.135
223.137
223.138
223.139
223.14
223.141
223.142
223.143
223.144
223.145
223.146
223.147
223.147
223.148
223.149
223.149
223.15
223.151
223.151
223.152
223.152
223.153
223.153
223.153
223.154
223.154
223.154
223.155
223.155
223.155
223.156
223.156
223.156
223.157
223.157
223.157
223.135
223.137
223.139
223.141
223.142
223.144
223.145
223.146
223.147
223.149
223.15
223.151
223.152
223.153
223.154
223.154
223.155
223.156
223.157
223.157
223.158
223.159
223.159
223.16
223.16
223.161
223.161
223.162
223.162
223.163
223.163
223.163
223.164
223.164
223.164
223.165
223.165
223.165
223.165
223.166
223.166
223.166
223.144
223.146
223.148
223.149
223.151
223.152
223.154
223.155
223.156
223.157
223.158
223.159
223.16
223.161
223.162
223.163
223.164
223.164
223.165
223.166
223.166
223.167
223.168
223.168
223.169
223.169
223.17
223.17
223.171
223.171
223.171
223.172
223.172
223.172
223.173
223.173
223.173
223.174
223.174
223.174
223.174
223.175
223.153
223.154
223.156
223.157
223.159
223.16
223.162
223.163
223.164
223.165
223.166
223.167
223.168
223.169
223.17
223.171
223.172
223.172
223.173
223.174
223.174
223.175
223.175
223.176
223.177
223.177
223.177
223.178
223.178
223.179
223.179
223.179
223.18
223.18
223.18
223.181
223.181
223.181
223.182
223.182
223.182
223.182
223.16
223.161
223.163
223.165
223.166
223.167
223.169
223.17
223.171
223.172
223.173
223.174
223.175
223.176
223.177
223.178
223.178
223.179
223.18
223.181
223.181
223.182
223.182
223.183
223.183
223.184
223.184
223.185
223.185
223.186
223.186
223.186
223.187
223.187
223.187
223.188
223.188
223.188
223.188
223.189
223.189
223.189
223.166
223.167
223.169
223.171
223.172
223.173
223.175
223.176
223.177
223.178
223.179
223.18
223.181
223.182
223.183
223.184
223.184
223.185
223.186
223.186
223.187
223.188
223.188
223.189
223.189
223.19
223.19
223.191
223.191
223.191
223.192
223.192
223.192
223.193
223.193
223.193
223.194
223.194
223.194
223.194
223.195
223.195
223.171
223.172
223.174
223.175
223.177
223.178
223.179
223.181
223.182
223.183
223.184
223.185
223.186
223.187
223.187
223.188
223.189
223.19
223.19
223.191
223.192
223.192
223.193
223.193
223.194
223.194
223.195
223.195
223.196
223.196
223.196
223.197
223.197
223.197
223.198
223.198
223.198
223.198
223.199
223.199
223.199
223.199
223.175
223.176
223.178
223.179
223.181
223.182
223.183
223.184
223.185
223.187
223.188
223.189
223.189
223.19
223.191
223.192
223.193
223.193
223.194
223.195
223.195
223.196
223.196
223.197
223.197
223.198
223.198
223.199
223.199
223.2
223.2
223.2
223.201
223.201
223.201
223.201
223.202
223.202
223.202
223.202
223.203
223.203
223.178
223.179
223.181
223.182
223.184
223.185
223.186
223.187
223.188
223.19
223.191
223.191
223.192
223.193
223.194
223.195
223.195
223.196
223.197
223.197
223.198
223.199
223.199
223.2
223.2
223.201
223.201
223.201
223.202
223.202
223.203
223.203
223.203
223.204
223.204
223.204
223.204
223.205
223.205
223.205
223.205
223.206
223.181
223.182
223.184
223.185
223.187
223.188
223.189
223.19
223.191
223.192
223.193
223.194
223.195
223.196
223.197
223.197
223.198
223.199
223.199
223.2
223.201
223.201
223.202
223.202
223.203
223.203
223.204
223.204
223.204
223.205
223.205
223.205
223.206
223.206
223.206
223.207
223.207
223.207
223.207
223.208
223.208
223.208
223.183
223.185
223.186
223.187
223.189
223.19
223.191
223.192
223.193
223.194
223.195
223.196
223.197
223.198
223.199
223.199
223.2
223.201
223.201
223.202
223.203
223.203
223.204
223.204
223.205
223.205
223.206
223.206
223.206
223.207
223.207
223.207
223.208
223.208