/*--------------------------------*- C++ -*----------------------------------*\
| =========                 |                                                 |
| \\      /  F ield         | OpenFOAM: The Open Source CFD Toolbox           |
|  \\    /   O peration     | Version:  2412                                  |
|   \\  /    A nd           | Website:  www.openfoam.com                      |
|    \\/     M anipulation  |                                                 |
\*---------------------------------------------------------------------------*/
FoamFile
{
    version     2.0;
    format      ascii;
    arch        "LSB;label=32;scalar=64";
    class       volScalarField;
    location    "0.106";
    object      rho;
}
// * * * * * * * * * * * * * * * * * * * * * * * * * * * * * * * * * * * * * //

dimensions      [1 -3 0 0 0 0 0];

internalField   nonuniform List<scalar> 
9831
(
0.0210532
0.0386442
0.0210139
0.0386432
0.0411822
0.0409753
0.04099
0.0410369
0.0411335
0.0412324
0.04133
0.0414236
0.0415177
0.0416098
0.0416947
0.0417675
0.0418269
0.0418748
0.0419151
0.0419527
0.0419918
0.0420346
0.0420816
0.042132
0.0421851
0.0422403
0.042297
0.0423549
0.0424133
0.0424716
0.0425292
0.042586
0.042642
0.0426974
0.042752
0.0428059
0.0428591
0.0429113
0.0429626
0.0430128
0.0430617
0.0431094
0.0431555
0.0432
0.0432427
0.0432837
0.043323
0.0433604
0.043396
0.0434296
0.043461
0.04349
0.0209883
0.0386419
0.0411789
0.0409667
0.0409803
0.0410281
0.0411267
0.0412274
0.0413264
0.0414211
0.041516
0.0416084
0.0416933
0.0417659
0.0418251
0.0418729
0.0419132
0.0419509
0.0419902
0.0420333
0.0420805
0.042131
0.0421843
0.0422396
0.0422965
0.0423545
0.0424129
0.0424712
0.0425288
0.0425857
0.0426417
0.0426971
0.0427518
0.0428057
0.0428589
0.0429111
0.0429624
0.0430126
0.0430615
0.0431091
0.0431552
0.0431996
0.0432423
0.0432833
0.0433225
0.04336
0.0433956
0.0434291
0.0434606
0.0434896
0.0435163
0.0435403
0.0209606
0.0386423
0.0411758
0.0409586
0.0409708
0.0410194
0.0411201
0.0412224
0.0413228
0.0414187
0.0415143
0.041607
0.0416918
0.0417642
0.0418233
0.0418709
0.0419113
0.0419492
0.0419888
0.0420321
0.0420794
0.0421301
0.0421835
0.0422389
0.042296
0.042354
0.0424125
0.0424708
0.0425285
0.0425854
0.0426415
0.0426969
0.0427516
0.0428055
0.0428587
0.0429109
0.0429622
0.0430123
0.0430613
0.0431088
0.0431549
0.0431992
0.0432419
0.0432828
0.0433221
0.0433595
0.0433951
0.0434287
0.0434602
0.0434893
0.043516
0.04354
0.0435614
0.04358
0.0209255
0.0386449
0.0411732
0.0409507
0.0409614
0.0410109
0.0411135
0.0412175
0.0413193
0.0414163
0.0415126
0.0416056
0.0416904
0.0417626
0.0418215
0.0418691
0.0419095
0.0419475
0.0419873
0.0420308
0.0420783
0.0421292
0.0421827
0.0422383
0.0422954
0.0423536
0.0424122
0.0424705
0.0425282
0.0425851
0.0426412
0.0426966
0.0427513
0.0428053
0.0428584
0.0429107
0.0429619
0.0430121
0.043061
0.0431086
0.0431545
0.0431988
0.0432414
0.0432824
0.0433216
0.0433591
0.0433947
0.0434284
0.0434599
0.043489
0.0435157
0.0435399
0.0435613
0.04358
0.0435958
0.0436086
0.0436184
0.0436253
0.043629
0.0436294
0.0436263
0.0436203
0.0436113
0.0435994
0.0435845
0.0435668
0.0435464
0.0435235
0.0434982
0.0434706
0.0434409
0.0434094
0.0433761
0.0433413
0.0433051
0.0432678
0.0432294
0.0431903
0.0431505
0.0431103
0.0430696
0.0430288
0.0429879
0.0429471
0.0429064
0.0428661
0.0428261
0.0427866
0.0427476
0.0427093
0.0426716
0.0426346
0.0425984
0.0425631
0.0425286
0.0424949
0.0424622
0.0424303
0.0423994
0.0423693
0.0423402
0.0423121
0.0422848
0.0422585
0.0422331
0.0422086
0.042185
0.0421623
0.0421404
0.0421194
0.042099
0.0420793
0.0420603
0.0420418
0.0420241
0.0420069
0.0419903
0.0419762
0.0419599
0.0209054
0.0386493
0.0411705
0.0409431
0.0409522
0.0410024
0.0411071
0.0412126
0.0413157
0.0414138
0.0415109
0.0416042
0.041689
0.041761
0.0418197
0.0418672
0.0419077
0.0419459
0.0419859
0.0420296
0.0420773
0.0421283
0.0421819
0.0422377
0.0422949
0.0423532
0.0424118
0.0424702
0.0425279
0.0425848
0.0426409
0.0426964
0.0427511
0.0428051
0.0428582
0.0429104
0.0429617
0.0430118
0.0430607
0.0431082
0.0431542
0.0431984
0.043241
0.0432819
0.0433212
0.0433587
0.0433944
0.043428
0.0434596
0.0434888
0.0435155
0.0435398
0.0435613
0.0435801
0.043596
0.043609
0.043619
0.0436262
0.0436301
0.0436308
0.0436281
0.0436225
0.043614
0.0436025
0.0435882
0.0435712
0.0435515
0.0435293
0.0435048
0.043478
0.0434493
0.0434187
0.0433865
0.0433528
0.0433177
0.0432816
0.0432444
0.0432065
0.043168
0.043129
0.0430896
0.0430502
0.0430106
0.0429712
0.0429319
0.0428929
0.0428543
0.0428161
0.0427785
0.0427415
0.0427051
0.0426695
0.0426346
0.0426006
0.0425673
0.0425349
0.0425034
0.0424727
0.0424429
0.042414
0.042386
0.0423589
0.0423327
0.0423074
0.042283
0.0422595
0.0422369
0.0422151
0.0421941
0.0421739
0.0421543
0.0421354
0.0421172
0.0420995
0.0420825
0.0420661
0.0420503
0.0420372
0.0420212
0.0420102
0.0419814
0.0208855
0.0386554
0.041168
0.0409358
0.0409432
0.0409941
0.0411007
0.0412078
0.0413123
0.0414114
0.0415092
0.0416028
0.0416875
0.0417594
0.0418179
0.0418654
0.0419059
0.0419443
0.0419845
0.0420284
0.0420763
0.0421274
0.0421812
0.0422371
0.0422944
0.0423528
0.0424115
0.0424698
0.0425275
0.0425845
0.0426406
0.0426961
0.0427509
0.0428048
0.0428579
0.0429101
0.0429614
0.0430115
0.0430604
0.0431079
0.0431538
0.043198
0.0432405
0.0432815
0.0433207
0.0433583
0.043394
0.0434278
0.0434593
0.0434886
0.0435154
0.0435397
0.0435614
0.0435803
0.0435964
0.0436096
0.0436199
0.0436272
0.0436314
0.0436325
0.0436302
0.0436251
0.0436171
0.0436063
0.0435926
0.0435762
0.0435573
0.0435359
0.0435122
0.0434865
0.0434587
0.0434292
0.043398
0.0433654
0.0433316
0.0432967
0.0432608
0.0432242
0.043187
0.0431493
0.0431114
0.0430733
0.0430351
0.0429971
0.0429592
0.0429216
0.0428844
0.0428476
0.0428114
0.0427757
0.0427407
0.0427064
0.0426729
0.0426401
0.0426081
0.042577
0.0425466
0.0425172
0.0424886
0.0424608
0.0424339
0.0424079
0.0423827
0.0423585
0.042335
0.0423125
0.0422908
0.0422699
0.0422498
0.0422304
0.0422117
0.0421935
0.042176
0.042159
0.0421428
0.0421276
0.0421127
0.0421008
0.0420846
0.0420731
0.0420443
0.0208618
0.0386633
0.0411657
0.0409288
0.0409343
0.0409859
0.0410944
0.041203
0.0413088
0.0414091
0.0415075
0.0416014
0.0416861
0.0417579
0.0418162
0.0418636
0.0419041
0.0419427
0.0419831
0.0420273
0.0420753
0.0421266
0.0421805
0.0422365
0.0422939
0.0423524
0.0424111
0.0424695
0.0425272
0.0425842
0.0426404
0.0426959
0.0427506
0.0428046
0.0428577
0.0429099
0.0429611
0.0430112
0.0430601
0.0431075
0.0431534
0.0431975
0.0432401
0.043281
0.0433203
0.0433579
0.0433937
0.0434275
0.0434591
0.0434885
0.0435154
0.0435398
0.0435616
0.0435807
0.043597
0.0436104
0.0436209
0.0436285
0.0436331
0.0436345
0.0436327
0.0436281
0.0436207
0.0436104
0.0435974
0.0435818
0.0435637
0.0435432
0.0435204
0.0434956
0.0434689
0.0434405
0.0434105
0.0433791
0.0433465
0.0433129
0.0432783
0.0432431
0.0432072
0.043171
0.0431345
0.0430978
0.0430611
0.0430245
0.042988
0.0429519
0.0429161
0.0428808
0.042846
0.0428118
0.0427781
0.0427452
0.042713
0.0426815
0.0426508
0.042621
0.0425919
0.0425636
0.0425362
0.0425096
0.0424838
0.0424589
0.0424348
0.0424116
0.0423891
0.0423676
0.0423468
0.0423268
0.0423076
0.042289
0.0422711
0.0422537
0.0422369
0.0422207
0.0422054
0.0421913
0.0421771
0.0421654
0.0421495
0.0421383
0.04211
0.020845
0.038673
0.0411634
0.0409219
0.0409255
0.0409778
0.0410883
0.0411984
0.0413054
0.0414067
0.0415058
0.0416
0.0416847
0.0417563
0.0418145
0.0418618
0.0419024
0.0419411
0.0419818
0.0420261
0.0420743
0.0421257
0.0421798
0.0422359
0.0422935
0.042352
0.0424108
0.0424692
0.0425269
0.0425839
0.0426401
0.0426956
0.0427504
0.0428043
0.0428574
0.0429095
0.0429608
0.0430109
0.0430598
0.0431072
0.0431529
0.0431971
0.0432396
0.0432806
0.0433199
0.0433576
0.0433934
0.0434273
0.043459
0.0434884
0.0435154
0.04354
0.0435619
0.0435812
0.0435976
0.0436113
0.0436221
0.04363
0.043635
0.0436368
0.0436356
0.0436316
0.0436247
0.0436151
0.0436029
0.0435881
0.0435708
0.0435512
0.0435295
0.0435058
0.0434802
0.0434529
0.0434241
0.043394
0.0433627
0.0433304
0.0432973
0.0432634
0.043229
0.0431943
0.0431592
0.043124
0.0430888
0.0430537
0.0430187
0.0429841
0.0429497
0.0429159
0.0428825
0.0428497
0.0428175
0.0427859
0.0427551
0.0427249
0.0426955
0.0426669
0.0426391
0.042612
0.0425858
0.0425603
0.0425357
0.0425118
0.0424888
0.0424665
0.0424451
0.0424245
0.0424046
0.0423855
0.0423671
0.0423494
0.0423322
0.0423156
0.0422995
0.0422841
0.0422695
0.0422564
0.0422427
0.0422309
0.0422155
0.0422051
0.0421773
0.0208358
0.0386851
0.0411616
0.0409151
0.0409168
0.04097
0.0410822
0.0411937
0.0413021
0.0414043
0.0415041
0.0415986
0.0416833
0.0417548
0.0418128
0.0418601
0.0419007
0.0419396
0.0419805
0.042025
0.0420734
0.0421249
0.0421791
0.0422353
0.042293
0.0423516
0.0424104
0.0424689
0.0425266
0.0425836
0.0426398
0.0426953
0.0427501
0.042804
0.0428571
0.0429092
0.0429604
0.0430106
0.0430594
0.0431068
0.0431525
0.0431966
0.0432391
0.0432801
0.0433195
0.0433572
0.0433931
0.0434271
0.0434589
0.0434884
0.0435155
0.0435402
0.0435623
0.0435818
0.0435985
0.0436124
0.0436235
0.0436318
0.0436371
0.0436395
0.0436388
0.0436353
0.0436291
0.0436203
0.0436088
0.0435949
0.0435785
0.04356
0.0435393
0.0435167
0.0434922
0.0434662
0.0434387
0.0434099
0.04338
0.0433491
0.0433173
0.043285
0.043252
0.0432188
0.0431852
0.0431516
0.0431178
0.0430843
0.0430508
0.0430177
0.0429849
0.0429525
0.0429206
0.0428893
0.0428585
0.0428283
0.0427989
0.0427701
0.042742
0.0427147
0.0426881
0.0426623
0.0426372
0.0426129
0.0425894
0.0425667
0.0425447
0.0425234
0.042503
0.0424833
0.0424644
0.0424462
0.0424286
0.0424117
0.0423953
0.0423794
0.0423641
0.0423495
0.0423357
0.0423234
0.04231
0.0422983
0.0422836
0.0422741
0.042247
0.0208263
0.0387
0.0411601
0.0409084
0.0409082
0.0409623
0.0410763
0.0411892
0.0412988
0.041402
0.0415024
0.0415972
0.0416819
0.0417532
0.0418112
0.0418584
0.0418991
0.0419381
0.0419792
0.0420239
0.0420724
0.0421241
0.0421784
0.0422348
0.0422926
0.0423512
0.0424101
0.0424685
0.0425263
0.0425833
0.0426395
0.042695
0.0427498
0.0428037
0.0428567
0.0429089
0.0429601
0.0430102
0.043059
0.0431063
0.043152
0.0431961
0.0432387
0.0432797
0.0433191
0.0433569
0.0433929
0.0434269
0.0434588
0.0434884
0.0435157
0.0435405
0.0435628
0.0435825
0.0435994
0.0436137
0.0436251
0.0436337
0.0436395
0.0436425
0.0436425
0.0436395
0.043634
0.043626
0.0436154
0.0436024
0.043587
0.0435695
0.0435499
0.0435285
0.0435053
0.0434805
0.0434543
0.0434269
0.0433984
0.043369
0.0433388
0.0433079
0.0432765
0.0432448
0.0432128
0.0431807
0.0431486
0.0431166
0.0430847
0.0430531
0.0430218
0.042991
0.0429605
0.0429307
0.0429013
0.0428726
0.0428445
0.0428171
0.0427903
0.0427643
0.042739
0.0427144
0.0426905
0.0426674
0.0426449
0.0426233
0.0426023
0.0425821
0.0425626
0.0425439
0.0425259
0.0425085
0.0424918
0.0424756
0.04246
0.0424448
0.0424303
0.0424165
0.0424034
0.0423919
0.0423788
0.0423673
0.0423533
0.0423447
0.0423184
0.0208157
0.0387179
0.0411584
0.0409017
0.0408996
0.0409549
0.0410705
0.0411847
0.0412955
0.0413997
0.0415007
0.0415958
0.0416805
0.0417517
0.0418096
0.0418567
0.0418975
0.0419367
0.041978
0.0420229
0.0420715
0.0421234
0.0421778
0.0422342
0.0422921
0.0423508
0.0424097
0.0424682
0.042526
0.042583
0.0426392
0.0426947
0.0427495
0.0428034
0.0428564
0.0429085
0.0429597
0.0430098
0.0430586
0.0431059
0.0431516
0.0431956
0.0432382
0.0432793
0.0433188
0.0433566
0.0433927
0.0434268
0.0434588
0.0434885
0.0435159
0.0435409
0.0435634
0.0435833
0.0436006
0.0436151
0.0436269
0.0436359
0.0436422
0.0436459
0.0436465
0.043644
0.0436393
0.0436321
0.0436224
0.0436104
0.043596
0.0435796
0.0435612
0.043541
0.0435191
0.0434957
0.0434709
0.0434449
0.0434179
0.0433899
0.0433612
0.043332
0.0433021
0.043272
0.0432416
0.0432112
0.0431806
0.0431502
0.0431199
0.0430899
0.0430602
0.0430309
0.043002
0.0429736
0.0429457
0.0429185
0.0428918
0.0428657
0.0428403
0.0428156
0.0427916
0.0427682
0.0427455
0.0427235
0.0427023
0.0426817
0.0426618
0.0426426
0.0426241
0.0426063
0.0425892
0.0425727
0.0425568
0.0425414
0.0425265
0.0425121
0.0424984
0.0424853
0.0424729
0.042462
0.0424492
0.042438
0.0424248
0.0424172
0.0423917
0.0208075
0.0387397
0.0411575
0.0408951
0.0408911
0.0409477
0.0410649
0.0411804
0.0412923
0.0413975
0.0414991
0.0415944
0.0416791
0.0417502
0.0418079
0.041855
0.0418959
0.0419353
0.0419767
0.0420218
0.0420706
0.0421226
0.0421772
0.0422337
0.0422917
0.0423505
0.0424094
0.0424679
0.0425257
0.0425827
0.0426389
0.0426944
0.0427492
0.042803
0.042856
0.0429082
0.0429594
0.0430095
0.0430582
0.0431055
0.0431511
0.0431952
0.0432377
0.0432788
0.0433184
0.0433564
0.0433925
0.0434267
0.0434588
0.0434886
0.0435162
0.0435414
0.0435641
0.0435843
0.0436018
0.0436167
0.0436289
0.0436384
0.0436452
0.0436495
0.0436508
0.043649
0.0436452
0.0436388
0.0436301
0.043619
0.0436058
0.0435905
0.0435734
0.0435544
0.0435339
0.0435119
0.0434885
0.043464
0.0434385
0.0434122
0.0433851
0.0433574
0.0433292
0.0433007
0.043272
0.0432431
0.0432142
0.0431855
0.0431568
0.0431284
0.0431003
0.0430725
0.0430452
0.0430183
0.0429919
0.0429661
0.0429408
0.0429161
0.0428921
0.0428686
0.0428459
0.0428237
0.0428022
0.0427814
0.0427612
0.0427417
0.0427229
0.0427047
0.0426871
0.0426703
0.0426541
0.0426384
0.0426233
0.0426087
0.0425946
0.042581
0.042568
0.0425556
0.0425438
0.0425335
0.0425211
0.0425103
0.0424978
0.042491
0.0424663
0.0207992
0.0387645
0.0411576
0.0408886
0.0408826
0.0409406
0.0410594
0.0411761
0.0412892
0.0413952
0.0414974
0.041593
0.0416777
0.0417487
0.0418063
0.0418534
0.0418943
0.0419338
0.0419755
0.0420208
0.0420698
0.0421219
0.0421765
0.0422332
0.0422912
0.0423501
0.042409
0.0424676
0.0425253
0.0425823
0.0426386
0.0426941
0.0427488
0.0428027
0.0428557
0.0429078
0.042959
0.0430091
0.0430578
0.043105
0.0431506
0.0431947
0.0432373
0.0432784
0.0433181
0.0433561
0.0433923
0.0434266
0.0434588
0.0434888
0.0435166
0.0435419
0.0435649
0.0435853
0.0436032
0.0436185
0.0436312
0.0436411
0.0436484
0.0436534
0.0436553
0.0436544
0.0436514
0.0436459
0.0436382
0.0436282
0.0436161
0.043602
0.0435861
0.0435685
0.0435494
0.0435288
0.043507
0.043484
0.0434601
0.0434353
0.0434099
0.0433838
0.0433573
0.0433305
0.0433035
0.0432763
0.0432491
0.043222
0.043195
0.0431682
0.0431417
0.0431155
0.0430897
0.0430644
0.0430395
0.0430152
0.0429913
0.0429681
0.0429454
0.0429233
0.0429018
0.0428809
0.0428606
0.0428409
0.0428219
0.0428034
0.0427856
0.0427685
0.0427519
0.042736
0.0427206
0.0427058
0.0426916
0.0426777
0.0426644
0.0426515
0.0426393
0.0426276
0.0426164
0.0426066
0.0425946
0.0425842
0.0425724
0.0425666
0.0425427
0.020804
0.0387918
0.0411582
0.0408822
0.0408742
0.0409337
0.041054
0.0411719
0.0412861
0.041393
0.0414958
0.0415916
0.0416764
0.0417473
0.0418048
0.0418518
0.0418928
0.0419325
0.0419743
0.0420198
0.0420689
0.0421211
0.0421759
0.0422327
0.0422908
0.0423497
0.0424087
0.0424672
0.042525
0.042582
0.0426383
0.0426938
0.0427485
0.0428023
0.0428553
0.0429074
0.0429586
0.0430086
0.0430574
0.0431045
0.0431501
0.0431942
0.0432368
0.043278
0.0433178
0.0433559
0.0433922
0.0434266
0.0434589
0.0434891
0.043517
0.0435426
0.0435658
0.0435865
0.0436047
0.0436204
0.0436336
0.043644
0.0436519
0.0436575
0.0436603
0.0436603
0.0436581
0.0436536
0.0436469
0.043638
0.0436271
0.0436143
0.0435998
0.0435836
0.0435659
0.0435468
0.0435265
0.0435052
0.0434829
0.0434598
0.043436
0.0434116
0.0433868
0.0433618
0.0433364
0.043311
0.0432855
0.0432601
0.0432347
0.0432096
0.0431847
0.0431602
0.043136
0.0431122
0.0430888
0.0430659
0.0430435
0.0430216
0.0430003
0.0429795
0.0429593
0.0429396
0.0429205
0.042902
0.0428841
0.0428667
0.04285
0.0428338
0.0428182
0.0428032
0.0427887
0.0427748
0.0427613
0.0427483
0.0427357
0.0427236
0.0427122
0.0427011
0.0426904
0.0426813
0.0426696
0.0426596
0.0426486
0.0426438
0.0426206
0.0208101
0.0388269
0.0411592
0.0408759
0.040866
0.040927
0.0410487
0.0411677
0.0412831
0.0413909
0.0414942
0.0415902
0.041675
0.0417458
0.0418032
0.0418502
0.0418913
0.0419311
0.0419732
0.0420188
0.0420681
0.0421204
0.0421753
0.0422322
0.0422904
0.0423493
0.0424084
0.0424669
0.0425247
0.0425817
0.042638
0.0426935
0.0427481
0.0428019
0.0428549
0.042907
0.0429582
0.0430082
0.0430569
0.043104
0.0431496
0.0431937
0.0432364
0.0432776
0.0433175
0.0433557
0.0433921
0.0434266
0.043459
0.0434894
0.0435175
0.0435433
0.0435667
0.0435878
0.0436064
0.0436225
0.0436361
0.0436472
0.0436557
0.0436619
0.0436656
0.0436665
0.043665
0.0436616
0.043656
0.0436483
0.0436387
0.0436272
0.043614
0.0435992
0.043583
0.0435655
0.0435468
0.0435271
0.0435064
0.043485
0.043463
0.0434404
0.0434173
0.043394
0.0433704
0.0433467
0.043323
0.0432993
0.0432757
0.0432522
0.043229
0.0432061
0.0431835
0.0431613
0.0431394
0.0431181
0.0430971
0.0430767
0.0430567
0.0430373
0.0430183
0.0429999
0.0429821
0.0429647
0.0429479
0.0429316
0.0429159
0.0429008
0.0428861
0.0428721
0.0428585
0.0428454
0.0428327
0.0428204
0.0428086
0.0427973
0.0427866
0.0427762
0.042766
0.0427574
0.0427461
0.0427367
0.0427264
0.0427224
0.0427
0.0208055
0.0388687
0.0411607
0.0408694
0.0408579
0.0409204
0.0410435
0.0411637
0.0412801
0.0413887
0.0414926
0.0415889
0.0416736
0.0417444
0.0418017
0.0418486
0.0418898
0.0419298
0.041972
0.0420179
0.0420673
0.0421197
0.0421747
0.0422317
0.04229
0.042349
0.042408
0.0424666
0.0425243
0.0425814
0.0426376
0.0426931
0.0427478
0.0428016
0.0428545
0.0429066
0.0429578
0.0430078
0.0430564
0.0431035
0.0431491
0.0431932
0.0432359
0.0432773
0.0433172
0.0433555
0.043392
0.0434266
0.0434592
0.0434897
0.043518
0.043544
0.0435678
0.0435892
0.0436082
0.0436248
0.0436389
0.0436505
0.0436597
0.0436666
0.0436712
0.0436731
0.0436726
0.0436702
0.0436657
0.0436593
0.0436509
0.0436408
0.043629
0.0436158
0.0436011
0.0435852
0.0435681
0.0435501
0.0435312
0.0435115
0.0434912
0.0434704
0.0434492
0.0434276
0.0434058
0.0433839
0.0433619
0.04334
0.0433181
0.0432964
0.0432749
0.0432536
0.0432326
0.0432119
0.0431916
0.0431718
0.0431523
0.0431332
0.0431147
0.0430965
0.0430789
0.0430617
0.0430451
0.0430289
0.0430132
0.042998
0.0429834
0.0429692
0.0429555
0.0429424
0.0429297
0.0429174
0.0429056
0.0428941
0.0428831
0.0428726
0.0428626
0.0428529
0.0428432
0.0428352
0.0428243
0.0428154
0.0428057
0.0428023
0.0427811
0.0208186
0.0389113
0.0411626
0.040863
0.0408499
0.040914
0.0410384
0.0411597
0.0412771
0.0413866
0.041491
0.0415875
0.0416723
0.0417429
0.0418002
0.0418471
0.0418883
0.0419285
0.0419709
0.0420169
0.0420665
0.0421191
0.0421741
0.0422312
0.0422895
0.0423486
0.0424077
0.0424662
0.042524
0.042581
0.0426373
0.0426928
0.0427474
0.0428012
0.0428541
0.0429062
0.0429573
0.0430073
0.043056
0.043103
0.0431486
0.0431927
0.0432355
0.0432769
0.0433169
0.0433553
0.0433919
0.0434267
0.0434594
0.0434901
0.0435186
0.0435449
0.043569
0.0435908
0.0436102
0.0436272
0.0436419
0.0436541
0.043664
0.0436716
0.043677
0.04368
0.0436806
0.0436791
0.0436758
0.0436706
0.0436636
0.0436549
0.0436446
0.0436328
0.0436198
0.0436055
0.0435901
0.0435738
0.0435567
0.0435388
0.0435203
0.0435013
0.0434819
0.0434621
0.0434422
0.0434221
0.0434019
0.0433818
0.0433616
0.0433417
0.0433218
0.0433022
0.0432829
0.0432638
0.0432451
0.0432268
0.0432088
0.0431912
0.043174
0.0431572
0.0431409
0.043125
0.0431096
0.0430946
0.04308
0.0430659
0.0430523
0.0430392
0.0430265
0.0430143
0.0430025
0.0429911
0.04298
0.0429694
0.0429591
0.0429493
0.0429401
0.042931
0.0429219
0.0429144
0.0429039
0.0428956
0.0428864
0.0428835
0.0428634
0.0208575
0.0389647
0.0411644
0.0408564
0.0408421
0.0409077
0.0410335
0.0411558
0.0412742
0.0413845
0.0414894
0.0415861
0.0416709
0.0417415
0.0417987
0.0418456
0.0418869
0.0419272
0.0419698
0.042016
0.0420657
0.0421184
0.0421736
0.0422307
0.0422891
0.0423482
0.0424073
0.0424659
0.0425237
0.0425807
0.0426369
0.0426924
0.042747
0.0428007
0.0428536
0.0429057
0.0429569
0.0430069
0.0430555
0.0431025
0.0431481
0.0431922
0.043235
0.0432766
0.0433167
0.0433551
0.0433919
0.0434268
0.0434597
0.0434905
0.0435193
0.0435458
0.0435702
0.0435924
0.0436123
0.0436298
0.043645
0.0436579
0.0436685
0.043677
0.0436832
0.0436872
0.043689
0.0436886
0.0436865
0.0436826
0.043677
0.0436697
0.043661
0.0436508
0.0436394
0.0436268
0.0436132
0.0435986
0.0435833
0.0435672
0.0435506
0.0435334
0.0435159
0.043498
0.0434799
0.0434617
0.0434433
0.043425
0.0434066
0.0433884
0.0433703
0.0433524
0.0433347
0.0433172
0.0433001
0.0432832
0.0432667
0.0432506
0.0432348
0.0432194
0.0432043
0.0431897
0.0431755
0.0431617
0.0431482
0.0431352
0.0431227
0.0431106
0.0430988
0.0430876
0.0430766
0.0430661
0.0430558
0.043046
0.0430365
0.0430275
0.043019
0.0430107
0.0430021
0.042995
0.0429851
0.0429773
0.0429687
0.0429663
0.0429475
0.0208784
0.039028
0.0411653
0.0408496
0.0408345
0.0409016
0.0410286
0.0411519
0.0412714
0.0413824
0.0414878
0.0415848
0.0416696
0.0417401
0.0417972
0.0418441
0.0418854
0.0419259
0.0419688
0.0420151
0.0420649
0.0421177
0.042173
0.0422302
0.0422887
0.0423479
0.042407
0.0424656
0.0425233
0.0425803
0.0426366
0.042692
0.0427466
0.0428003
0.0428532
0.0429053
0.0429565
0.0430064
0.043055
0.043102
0.0431475
0.0431917
0.0432346
0.0432762
0.0433164
0.043355
0.0433919
0.0434269
0.0434599
0.043491
0.04352
0.0435468
0.0435716
0.0435941
0.0436145
0.0436326
0.0436484
0.0436619
0.0436733
0.0436826
0.0436897
0.0436946
0.0436976
0.0436985
0.0436976
0.043695
0.0436908
0.043685
0.0436778
0.0436693
0.0436595
0.0436486
0.0436368
0.043624
0.0436105
0.0435963
0.0435816
0.0435663
0.0435507
0.0435347
0.0435185
0.0435021
0.0434856
0.0434691
0.0434526
0.0434361
0.0434198
0.0434036
0.0433875
0.0433717
0.0433562
0.0433409
0.0433259
0.0433112
0.0432968
0.0432828
0.0432691
0.0432558
0.0432428
0.0432302
0.0432179
0.043206
0.0431945
0.0431834
0.0431727
0.0431624
0.0431523
0.0431426
0.0431332
0.0431242
0.0431155
0.0431073
0.0430994
0.043092
0.043084
0.0430774
0.0430679
0.0430604
0.0430524
0.0430504
0.0430329
0.0208955
0.0390998
0.0411677
0.0408426
0.040827
0.0408957
0.0410238
0.0411481
0.0412686
0.0413803
0.0414862
0.0415834
0.0416683
0.0417387
0.0417957
0.0418426
0.041884
0.0419247
0.0419677
0.0420142
0.0420641
0.0421171
0.0421724
0.0422297
0.0422883
0.0423475
0.0424067
0.0424652
0.042523
0.04258
0.0426362
0.0426917
0.0427462
0.0427999
0.0428528
0.0429049
0.042956
0.043006
0.0430545
0.0431015
0.043147
0.0431912
0.0432342
0.0432759
0.0433162
0.0433549
0.0433919
0.043427
0.0434603
0.0434915
0.0435207
0.0435479
0.043573
0.043596
0.0436168
0.0436354
0.0436519
0.0436661
0.0436783
0.0436885
0.0436966
0.0437025
0.0437067
0.0437089
0.0437093
0.043708
0.0437053
0.043701
0.0436954
0.0436886
0.0436805
0.0436714
0.0436614
0.0436505
0.0436389
0.0436266
0.0436137
0.0436004
0.0435867
0.0435727
0.0435584
0.0435439
0.0435293
0.0435146
0.0434999
0.0434853
0.0434707
0.0434562
0.0434419
0.0434277
0.0434137
0.0434
0.0433865
0.0433733
0.0433603
0.0433476
0.0433353
0.0433232
0.0433114
0.0433
0.0432889
0.0432781
0.0432677
0.0432576
0.0432478
0.0432384
0.0432293
0.0432204
0.0432119
0.0432037
0.0431958
0.0431883
0.0431811
0.0431746
0.0431672
0.043161
0.0431521
0.0431451
0.0431376
0.0431361
0.0431199
0.0209073
0.0391802
0.0411721
0.0408355
0.0408197
0.0408899
0.0410192
0.0411444
0.0412658
0.0413783
0.0414847
0.0415821
0.0416669
0.0417373
0.0417942
0.0418411
0.0418827
0.0419235
0.0419667
0.0420133
0.0420634
0.0421164
0.0421719
0.0422293
0.0422879
0.0423472
0.0424063
0.0424649
0.0425227
0.0425796
0.0426359
0.0426913
0.0427458
0.0427995
0.0428524
0.0429045
0.0429556
0.0430055
0.043054
0.043101
0.0431465
0.0431908
0.0432338
0.0432756
0.043316
0.0433548
0.0433919
0.0434272
0.0434606
0.0434921
0.0435216
0.0435491
0.0435745
0.043598
0.0436193
0.0436385
0.0436556
0.0436705
0.0436835
0.0436946
0.0437036
0.0437107
0.043716
0.0437195
0.0437213
0.0437214
0.0437201
0.0437174
0.0437135
0.0437083
0.043702
0.0436947
0.0436865
0.0436775
0.0436678
0.0436574
0.0436465
0.0436352
0.0436234
0.0436113
0.043599
0.0435864
0.0435737
0.0435609
0.0435481
0.0435353
0.0435225
0.0435098
0.0434971
0.0434846
0.0434723
0.0434602
0.0434482
0.0434365
0.043425
0.0434137
0.0434027
0.0433919
0.0433814
0.0433712
0.0433612
0.0433516
0.0433422
0.0433332
0.0433244
0.043316
0.0433078
0.0432998
0.0432921
0.0432847
0.0432776
0.0432709
0.0432644
0.0432587
0.0432517
0.0432458
0.0432375
0.0432312
0.0432242
0.043223
0.043208
0.020942
0.0392685
0.0411722
0.0408281
0.0408126
0.0408843
0.0410146
0.0411408
0.0412631
0.0413763
0.0414831
0.0415807
0.0416656
0.0417359
0.0417928
0.0418397
0.0418813
0.0419223
0.0419656
0.0420125
0.0420626
0.0421158
0.0421713
0.0422288
0.0422875
0.0423468
0.042406
0.0424646
0.0425223
0.0425793
0.0426355
0.0426909
0.0427454
0.0427991
0.0428519
0.042904
0.0429551
0.043005
0.0430535
0.0431004
0.043146
0.0431903
0.0432335
0.0432753
0.0433158
0.0433547
0.0433919
0.0434274
0.043461
0.0434927
0.0435225
0.0435503
0.0435762
0.0436
0.0436218
0.0436416
0.0436594
0.0436751
0.043689
0.043701
0.0437111
0.0437193
0.0437257
0.0437306
0.0437338
0.0437355
0.0437356
0.0437345
0.0437322
0.0437288
0.0437243
0.0437189
0.0437126
0.0437055
0.0436977
0.0436894
0.0436805
0.0436711
0.0436613
0.0436512
0.0436408
0.0436302
0.0436195
0.0436086
0.0435976
0.0435867
0.0435757
0.0435647
0.0435538
0.043543
0.0435323
0.0435217
0.0435113
0.043501
0.0434909
0.043481
0.0434713
0.0434619
0.0434526
0.0434436
0.0434348
0.0434262
0.043418
0.0434099
0.0434022
0.0433946
0.0433873
0.0433802
0.0433734
0.0433668
0.0433606
0.0433545
0.0433488
0.0433439
0.0433373
0.0433316
0.0433241
0.0433186
0.0433122
0.0433113
0.0432976
0.0209734
0.0393662
0.0411738
0.0408206
0.0408057
0.0408788
0.0410101
0.0411372
0.0412604
0.0413743
0.0414816
0.0415794
0.0416643
0.0417345
0.0417914
0.0418383
0.04188
0.0419211
0.0419646
0.0420116
0.0420619
0.0421151
0.0421708
0.0422284
0.0422872
0.0423465
0.0424057
0.0424642
0.042522
0.0425789
0.0426351
0.0426905
0.042745
0.0427986
0.0428515
0.0429036
0.0429547
0.0430046
0.043053
0.0430999
0.0431455
0.0431899
0.0432331
0.0432751
0.0433156
0.0433546
0.043392
0.0434276
0.0434614
0.0434933
0.0435234
0.0435516
0.0435778
0.0436022
0.0436245
0.0436449
0.0436634
0.0436799
0.0436946
0.0437076
0.0437187
0.043728
0.0437358
0.0437419
0.0437465
0.0437497
0.0437515
0.043752
0.0437513
0.0437496
0.043747
0.0437434
0.0437391
0.0437339
0.0437281
0.0437218
0.0437149
0.0437075
0.0436998
0.0436917
0.0436833
0.0436747
0.0436659
0.0436569
0.0436479
0.0436388
0.0436296
0.0436204
0.0436113
0.0436021
0.0435931
0.0435841
0.0435753
0.0435665
0.0435579
0.0435495
0.0435412
0.043533
0.043525
0.0435173
0.0435097
0.0435023
0.0434951
0.0434881
0.0434814
0.0434748
0.0434684
0.0434623
0.0434563
0.0434506
0.0434451
0.0434399
0.0434348
0.0434307
0.0434245
0.0434191
0.0434123
0.0434076
0.0434018
0.0434013
0.0433889
0.021017
0.0394742
0.0411777
0.0408131
0.040799
0.0408735
0.0410057
0.0411337
0.0412578
0.0413723
0.04148
0.041578
0.041663
0.0417332
0.04179
0.0418369
0.0418787
0.0419199
0.0419636
0.0420108
0.0420612
0.0421145
0.0421703
0.0422279
0.0422868
0.0423461
0.0424053
0.0424639
0.0425216
0.0425786
0.0426348
0.0426901
0.0427446
0.0427982
0.0428511
0.0429032
0.0429543
0.0430041
0.0430525
0.0430994
0.043145
0.0431894
0.0432327
0.0432748
0.0433155
0.0433546
0.0433921
0.0434278
0.0434618
0.043494
0.0435244
0.0435529
0.0435796
0.0436044
0.0436273
0.0436484
0.0436676
0.0436849
0.0437005
0.0437145
0.0437267
0.0437372
0.0437462
0.0437537
0.0437597
0.0437644
0.0437678
0.0437701
0.0437712
0.0437713
0.0437705
0.0437689
0.0437665
0.0437633
0.0437596
0.0437552
0.0437504
0.0437451
0.0437394
0.0437333
0.043727
0.0437204
0.0437136
0.0437066
0.0436994
0.0436922
0.0436849
0.0436775
0.0436701
0.0436627
0.0436553
0.0436479
0.0436406
0.0436334
0.0436262
0.0436192
0.0436122
0.0436054
0.0435986
0.043592
0.0435856
0.0435793
0.0435732
0.0435673
0.0435615
0.0435559
0.0435505
0.0435452
0.04354
0.0435352
0.0435305
0.0435261
0.0435217
0.0435183
0.0435124
0.0435073
0.0435014
0.0434975
0.0434924
0.0434922
0.0434812
0.021068
0.0395909
0.0411805
0.0408057
0.0407925
0.0408684
0.0410014
0.0411302
0.0412552
0.0413704
0.0414785
0.0415767
0.0416617
0.0417318
0.0417886
0.0418355
0.0418774
0.0419188
0.0419627
0.0420099
0.0420605
0.0421139
0.0421698
0.0422275
0.0422864
0.0423458
0.042405
0.0424636
0.0425213
0.0425782
0.0426344
0.0426897
0.0427442
0.0427978
0.0428507
0.0429027
0.0429538
0.0430036
0.043052
0.0430989
0.0431445
0.043189
0.0432324
0.0432745
0.0433153
0.0433545
0.0433921
0.0434281
0.0434623
0.0434947
0.0435254
0.0435543
0.0435814
0.0436067
0.0436302
0.0436519
0.0436719
0.04369
0.0437066
0.0437216
0.0437349
0.0437465
0.0437568
0.0437657
0.0437732
0.0437794
0.0437844
0.0437884
0.0437913
0.0437933
0.0437943
0.0437946
0.0437942
0.0437931
0.0437913
0.043789
0.0437863
0.043783
0.0437794
0.0437754
0.0437711
0.0437666
0.0437617
0.0437567
0.0437515
0.0437462
0.0437407
0.0437352
0.0437295
0.0437239
0.0437182
0.0437125
0.0437067
0.0437011
0.0436954
0.0436898
0.0436842
0.0436788
0.0436733
0.043668
0.0436628
0.0436577
0.0436527
0.0436479
0.0436432
0.0436386
0.043634
0.0436297
0.0436254
0.0436214
0.0436177
0.043614
0.0436102
0.0436074
0.043602
0.0435975
0.0435924
0.0435893
0.0435847
0.0435848
0.0435752
0.0211201
0.0397151
0.0411824
0.0407983
0.0407861
0.0408633
0.0409972
0.0411268
0.0412526
0.0413684
0.041477
0.0415754
0.0416604
0.0417305
0.0417872
0.0418341
0.0418761
0.0419177
0.0419617
0.0420091
0.0420598
0.0421133
0.0421693
0.0422271
0.042286
0.0423455
0.0424047
0.0424632
0.042521
0.0425779
0.042634
0.0426894
0.0427438
0.0427974
0.0428502
0.0429023
0.0429534
0.0430031
0.0430514
0.0430984
0.043144
0.0431886
0.043232
0.0432743
0.0433151
0.0433545
0.0433922
0.0434283
0.0434627
0.0434955
0.0435265
0.0435557
0.0435833
0.0436091
0.0436332
0.0436556
0.0436763
0.0436953
0.0437128
0.0437289
0.0437433
0.0437562
0.0437678
0.0437781
0.0437871
0.0437949
0.0438016
0.0438073
0.043812
0.0438159
0.0438189
0.0438212
0.0438228
0.0438237
0.0438241
0.0438239
0.0438232
0.0438221
0.0438206
0.0438187
0.0438164
0.0438139
0.0438111
0.0438081
0.0438049
0.0438014
0.0437979
0.0437941
0.0437903
0.0437864
0.0437823
0.0437783
0.0437741
0.04377
0.0437658
0.0437616
0.0437574
0.0437533
0.0437491
0.043745
0.043741
0.043737
0.0437332
0.0437293
0.0437256
0.0437219
0.0437183
0.0437149
0.0437115
0.0437084
0.0437055
0.0437026
0.0436992
0.0436968
0.0436919
0.0436883
0.0436839
0.0436813
0.0436775
0.0436779
0.0436694
0.0211822
0.0398454
0.041184
0.0407909