/*--------------------------------*- C++ -*----------------------------------*\
| =========                 |                                                 |
| \\      /  F ield         | OpenFOAM: The Open Source CFD Toolbox           |
|  \\    /   O peration     | Version:  2406                                  |
|   \\  /    A nd           | Website:  www.openfoam.com                      |
|    \\/     M anipulation  |                                                 |
\*---------------------------------------------------------------------------*/
FoamFile
{
    version     2.0;
    format      ascii;
    arch        "LSB;label=32;scalar=64";
    class       volScalarField;
    location    "0.027";
    object      p;
}
// * * * * * * * * * * * * * * * * * * * * * * * * * * * * * * * * * * * * * //

dimensions      [1 -1 -2 0 0 0 0];

internalField   nonuniform List<scalar> 
78650
(
2841.36
2836.86
2843
2842.19
2831.57
2813.36
2796.11
2782.33
2772.37
2765.71
2761.68
2758.36
2754.23
2748.98
2743.37
2738.24
2733.71
2729.46
2725.33
2721.41
2717.77
2714.43
2711.41
2708.73
2706.42
2704.45
2702.77
2701.33
2700.1
2699.01
2697.91
2696.68
2695.22
2693.51
2691.64
2689.68
2687.72
2685.79
2683.89
2682.01
2680.15
2678.34
2676.6
2674.92
2673.26
2671.57
2669.79
2667.9
2665.88
2663.72
2661.39
2658.86
2656.09
2653.03
2649.62
2645.83
2641.59
2636.85
2631.56
2625.67
2619.12
2611.83
2603.74
2594.76
2584.81
2573.84
2561.77
2548.51
2534
2518.17
2500.98
2482.39
2462.24
2440.42
2416.89
2391.65
2364.74
2336.06
2305.4
2272.92
2238.69
2202.74
2165.01
2125.68
2084.94
2042.97
1999.21
1953.63
1907.43
1862.61
1816.7
1770.62
1724.03
1677.58
1633.41
1590.24
1548.95
1510.49
1474.89
1440.48
1407.23
1374.43
1343.54
1313.5
1285.5
1259.37
1235.69
1212.78
1190.56
1168.83
1148.53
1129.9
1113.18
1099.22
1086.92
1075.59
1065
1055
1045.58
1037.57
1021.19
2832.56
2836.39
2844.38
2844.07
2835.94
2818.47
2800.44
2786
2775.72
2768.89
2764.96
2762.02
2758.36
2753.49
2748.01
2742.85
2738.3
2734.11
2730.07
2726.26
2722.76
2719.59
2716.74
2714.22
2712.05
2710.19
2708.62
2707.3
2706.2
2705.27
2704.37
2703.38
2702.18
2700.75
2699.16
2697.47
2695.76
2694.07
2692.42
2690.8
2689.2
2687.66
2686.2
2684.82
2683.48
2682.14
2680.75
2679.26
2677.68
2675.98
2674.14
2672.13
2669.92
2667.47
2664.72
2661.63
2658.15
2654.22
2649.8
2644.84
2639.29
2633.07
2626.13
2618.38
2609.75
2600.17
2589.57
2577.88
2565.05
2551
2535.65
2518.92
2500.65
2480.81
2459.41
2436.36
2411.59
2384.92
2356.26
2325.81
2293.72
2260.04
2224.78
2187.95
2149.26
2108.89
2066.7
2023.7
1979.86
1935.27
1890.02
1843.64
1798.61
1753.35
1708.58
1664.36
1619.38
1575.33
1533.39
1493.5
1456.91
1422.86
1390.59
1359.06
1329.64
1301.85
1276.09
1251.5
1228.68
1207.18
1186.83
1166.94
1147.74
1129.7
1113.47
1099.11
1086.05
1074.06
1063.46
1054.16
1036.34
2824.64
2835.32
2844.7
2845.63
2839.85
2823.54
2804.89
2789.87
2779.26
2772.23
2768.33
2765.69
2762.48
2758
2752.67
2747.47
2742.9
2738.77
2734.85
2731.17
2727.84
2724.85
2722.19
2719.86
2717.84
2716.12
2714.67
2713.45
2712.46
2711.65
2710.92
2710.12
2709.14
2707.96
2706.62
2705.2
2703.75
2702.33
2700.95
2699.6
2698.29
2697.03
2695.86
2694.79
2693.79
2692.81
2691.8
2690.73
2689.58
2688.33
2686.98
2685.49
2683.84
2681.98
2679.88
2677.48
2674.73
2671.59
2668.01
2663.94
2659.34
2654.15
2648.3
2641.71
2634.31
2626.06
2616.85
2606.64
2595.37
2582.92
2569.25
2554.29
2537.94
2520.16
2500.85
2479.92
2457.28
2432.85
2406.67
2378.91
2349.52
2318.25
2284.92
2249.58
2212.45
2174.09
2134.37
2092.99
2049.95
2005.05
1960.78
1916.04
1870.67
1825.1
1778.4
1733.3
1689.96
1646.08
1603.26
1560.44
1518.9
1478.88
1440.04
1402.99
1368.57
1336.39
1306.06
1277.96
1252.41
1229.09
1207.4
1186.77
1167.45
1149.22
1131.85
1115.16
1099.42
1084.79
1071.75
1060.69
1038.68
2817.63
2833.11
2844.31
2847
2843.24
2828.64
2809.76
2794.17
2783.13
2775.83
2771.86
2769.43
2766.62
2762.54
2757.4
2752.18
2747.58
2743.53
2739.75
2736.24
2733.08
2730.28
2727.81
2725.66
2723.81
2722.24
2720.91
2719.81
2718.92
2718.21
2717.61
2716.96
2716.18
2715.22
2714.12
2712.94
2711.75
2710.59
2709.48
2708.41
2707.38
2706.4
2705.53
2704.77
2704.1
2703.47
2702.84
2702.17
2701.44
2700.64
2699.76
2698.78
2697.66
2696.38
2694.89
2693.16
2691.12
2688.74
2685.98
2682.79
2679.12
2674.92
2670.14
2664.7
2658.53
2651.58
2643.77
2635.04
2625.33
2614.54
2602.63
2589.54
2575.12
2559.34
2542.12
2523.34
2502.94
2480.83
2457
2431.51
2404.18
2374.88
2343.69
2310.76
2276.1
2239.78
2201.56
2161.9
2121.03
2078.86
2035.49
1990.56
1943.83
1897.22
1851.4
1804.74
1759.22
1713.92
1670.46
1628.42
1587.55
1548.2
1510.38
1473.91
1438.94
1403.86
1369.91
1337.37
1307.69
1279.38
1252.97
1228.03
1205.2
1184.43
1165.29
1147.26
1130.01
1113.55
1098.54
1084.84
1058.06
2811.09
2829.51
2843.55
2848.22
2845.75
2833.79
2815.12
2798.93
2787.32
2779.7
2775.56
2773.27
2770.8
2767.13
2762.23
2757.01
2752.39
2748.44
2744.83
2741.51
2738.54
2735.94
2733.66
2731.69
2730.01
2728.59
2727.39
2726.41
2725.63
2725.04
2724.55
2724.05
2723.43
2722.67
2721.78
2720.83
2719.88
2718.97
2718.12
2717.32
2716.58
2715.9
2715.33
2714.88
2714.54
2714.28
2714.04
2713.77
2713.47
2713.12
2712.71
2712.23
2711.63
2710.92
2710.04
2708.96
2707.62
2705.99
2704.02
2701.67
2698.9
2695.67
2691.91
2687.56
2682.56
2676.85
2670.36
2663.03
2654.79
2645.57
2635.3
2623.91
2611.31
2597.47
2582.28
2565.59
2547.35
2527.54
2506.16
2483.17
2458.33
2431.51
2402.78
2372.19
2339.84
2305.91
2270.34
2233.23
2194.16
2153.42
2111.04
2067.08
2022.74
1977.25
1931.49
1884.58
1837.05
1789.09
1741.56
1695.38
1649.16
1604.66
1562.4
1522.82
1485.57
1450.04
1416.68
1384.93
1355.11
1325.41
1297.24
1270.55
1246.06
1223.06
1201.46
1181.47
1163.14
1146.51
1131.72
1118.48
1094.47
2805.1
2824.82
2842.19
2849.05
2847.76
2838.92
2821.03
2804.19
2791.91
2783.91
2779.45
2777.16
2774.96
2771.7
2767.13
2762
2757.4
2753.57
2750.16
2747.05
2744.27
2741.86
2739.76
2737.95
2736.42
2735.14
2734.07
2733.21
2732.55
2732.08
2731.72
2731.36
2730.91
2730.33
2729.64
2728.91
2728.18
2727.5
2726.89
2726.36
2725.89
2725.5
2725.22
2725.09
2725.08
2725.18
2725.3
2725.44
2725.55
2725.63
2725.68
2725.69
2725.61
2725.44
2725.15
2724.71
2724.05
2723.13
2721.93
2720.4
2718.5
2716.2
2713.45
2710.17
2706.32
2701.84
2696.65
2690.72
2683.97
2676.31
2667.71
2658.08
2647.34
2635.43
2622.24
2607.67
2591.7
2574.25
2555.22
2534.45
2511.78
2487.29
2461.19
2433.47
2404
2372.63
2339.17
2303.76
2266.41
2227.72
2187.45
2145.68
2102.53
2057.76
2011.71
1965.58
1919.53
1873.45
1827.14
1781.69
1735.23
1689.58
1644.67
1599.66
1555.57
1513.21
1473.22
1435.49
1399.75
1365.24
1333.24
1303.81
1276.61
1250.63
1225.6
1202.35
1181.42
1162.47
1145.5
1130.9
1098.85
2800
2819.26
2839.78
2849.38
2849.39
2843.8
2827.3
2809.9
2796.92
2788.41
2783.45
2781.01
2779.01
2776.2
2772.09
2767.18
2762.64
2758.94
2755.74
2752.85
2750.28
2748.04
2746.11
2744.45
2743.05
2741.9
2740.96
2740.22
2739.69
2739.35
2739.13
2738.92
2738.65
2738.26
2737.78
2737.25
2736.72
2736.26
2735.88
2735.59
2735.4
2735.29
2735.3
2735.47
2735.79
2736.23
2736.74
2737.27
2737.8
2738.33
2738.83
2739.32
2739.76
2740.13
2740.42
2740.57
2740.59
2740.37
2739.93
2739.21
2738.15
2736.75
2734.95
2732.7
2729.94
2726.62
2722.67
2718.05
2712.68
2706.5
2699.45
2691.46
2682.45
2672.38
2661.15
2648.65
2634.84
2619.61
2602.84
2584.51
2564.52
2542.91
2519.67
2494.58
2467.48
2438.38
2407.28
2374.34
2339.49
2302.91
2264.24
2224.15
2182.37
2139.47
2095.36
2049.84
2003.2
1956.38
1908.56
1861.22
1815
1769.06
1725.08
1681.19
1638.93
1598.02
1558.25
1518.55
1480.33
1442.64
1407.6
1374.31
1342.94
1312.7
1284.06
1257.13
1232.08
1208.69
1187.97
1168.91
1129.92
2796.06
2813.16
2835.84
2849.16
2850.93
2847.98
2833.73
2816.19
2802.48
2793.14
2787.46
2784.75
2782.94
2780.66
2777.15
2772.61
2768.18
2764.59
2761.61
2758.93
2756.55
2754.48
2752.69
2751.16
2749.88
2748.83
2747.99
2747.38
2746.97
2746.77
2746.69
2746.66
2746.58
2746.4
2746.13
2745.81
2745.49
2745.23
2745.07
2745.01
2745.07
2745.23
2745.52
2745.97
2746.6
2747.37
2748.25
2749.17
2750.11
2751.06
2752.01
2752.96
2753.89
2754.79
2755.63
2756.38
2757.01
2757.48
2757.75
2757.81
2757.58
2757.07
2756.21
2754.94
2753.26
2751.07
2748.33
2745.01
2741.03
2736.33
2730.85
2724.52
2717.26
2709.04
2699.73
2689.26
2677.59
2664.58
2650.15
2634.22
2616.7
2597.6
2576.86
2554.28
2529.78
2503.34
2474.93
2444.64
2412.49
2378.66
2343.04
2305.95
2266.85
2226.12
2183.53
2139.36
2093.54
2046.96
1998.68
1949.23
1901.13
1851.54
1802.6
1754.03
1706.83
1661.76
1617.93
1575.35
1535.44
1497.66
1462.2
1427.85
1394.43
1362.05
1332.32
1305.17
1279.99
1256.28
1235.17
1217.2
1184.1
2793.3
2807.05
2830.55
2847.98
2852.27
2851.15
2840.24
2823.1
2808.39
2797.87
2791.41
2788.39
2786.82
2785.09
2782.31
2778.26
2774
2770.51
2767.72
2765.25
2763.05
2761.12
2759.47
2758.04
2756.86
2755.9
2755.16
2754.66
2754.39
2754.32
2754.42
2754.57
2754.69
2754.73
2754.7
2754.6
2754.5
2754.44
2754.49
2754.66
2754.95
2755.36
2755.91
2756.64
2757.57
2758.67
2759.9
2761.21
2762.55
2763.92
2765.31
2766.72
2768.14
2769.55
2770.93
2772.27
2773.52
2774.66
2775.63
2776.41
2776.98
2777.29
2777.35
2777.03
2776.38
2775.29
2773.68
2771.58
2768.89
2765.56
2761.54
2756.75
2751.13
2744.63
2737.16
2728.66
2719.05
2708.2
2696.04
2682.55
2667.62
2651.2
2633.12
2613.17
2591.38
2567.83
2542.53
2515.48
2486.6
2455.76
2422.8
2387.88
2350.74
2312.04
2271.54
2229.84
2186.81
2142.13
2096.87
2049.95
2003.35
1955.06
1906.49
1858.3
1809.85
1761.59
1713.25
1665.27
1619.58
1575.86
1533.45
1492.64
1452.8
1414.54
1378.97
1346.23
1315.79
1286.67
1259.52
1236.57
1188.22
2791.59
2801.47
2824.01
2845.39
2852.82
2853.69
2846.58
2830.38
2814.4
2802.59
2795.48
2792.14
2790.77
2789.55
2787.54
2784.12
2780.1
2776.69
2774.06
2771.78
2769.72
2767.92
2766.36
2765.02
2763.92
2763.04
2762.41
2762.02
2761.89
2761.97
2762.25
2762.58
2762.91
2763.2
2763.4
2763.54
2763.67
2763.82
2764.07
2764.44
2764.96
2765.62
2766.42
2767.42
2768.62
2770.03
2771.59
2773.26
2774.99
2776.76
2778.57
2780.42
2782.3
2784.21
2786.11
2788
2789.84
2791.61
2793.26
2794.77
2796.11
2797.22
2798.1
2798.72
2799.02
2799.03
2798.53
2797.65
2796.24
2794.27
2791.7
2788.44
2784.46
2779.68
2774.04
2767.45
2759.86
2751.13
2741.23
2730.08
2717.54
2703.53
2687.95
2670.73
2651.94
2631.5
2609.27
2585.15
2559
2530.75
2500.42
2468.13
2433.71
2397.47
2359.05
2319.04
2277.01
2233.56
2188.48
2142.38
2094.87
2046.84
1998.06
1950.26
1902.66
1854.78
1808.01
1761.56
1716.5
1672.47
1628.77
1586.43
1545.98
1506.75
1469.93
1433.71
1399.72
1367.14
1336.51
1308.22
1251.31
2790.67
2796.94
2816.69
2841.12
2852.61
2856.02
2852.11
2837.54
2820.43
2807.54
2799.83
2796.06
2794.77
2793.97
2792.74
2790.1
2786.42
2783.08
2780.54
2778.4
2776.46
2774.75
2773.26
2772.01
2770.99
2770.21
2769.68
2769.43
2769.44
2769.72
2770.14
2770.67
2771.24
2771.77
2772.22
2772.61
2772.96
2773.34
2773.79
2774.37
2775.11
2776
2777.05
2778.3
2779.77
2781.47
2783.36
2785.37
2787.48
2789.64
2791.87
2794.15
2796.48
2798.86
2801.27
2803.7
2806.12
2808.49
2810.8
2813
2815.06
2816.97
2818.69
2820.19
2821.41
2822.34
2822.94
2823.17
2822.97
2822.28
2821.07
2819.23
2816.77
2813.59
2809.64
2804.88
2799.21
2792.54
2784.81
2775.94
2765.82
2754.38
2741.52
2727.14
2711.24
2693.68
2674.32
2653.08
2629.86
2604.57
2577.28
2547.99
2516.64
2483.44
2448.21
2411.34
2372.34
2331.71
2289.1
2244.93
2199.18
2151.6
2102.63
2052.85
2001.87
1950
1899.17
1848.91
1798.8
1750.41
1702.32
1655.91
1612.12
1570.43
1531.39
1492.65
1456.56
1423.7
1394.68
1370.09
1322.33
2790.24
2793.71
2809.3
2835.09
2851.88
2857.97
2855.87
2844.31
2826.99
2813.08
2804.53
2800.12
2798.8
2798.37
2797.88
2796.14
2792.91
2789.61
2787.08
2784.99
2783.13
2781.48
2780.08
2778.92
2778.01
2777.36
2776.97
2776.86
2777.07
2777.51
2778.12
2778.84
2779.62
2780.39
2781.1
2781.73
2782.31
2782.89
2783.55
2784.33
2785.28
2786.4
2787.69
2789.18
2790.9
2792.88
2795.07
2797.41
2799.87
2802.41
2805.03
2807.71
2810.47
2813.3
2816.19
2819.13
2822.09
2825.05
2827.97
2830.83
2833.6
2836.24
2838.75
2841.08
2843.21
2845.11
2846.72
2848.01
2848.94
2849.48
2849.62
2849.2
2848.26
2846.68
2844.38
2841.4
2837.6
2832.9
2827.27
2820.6
2812.77
2803.74
2793.4
2781.7
2768.59
2753.87
2737.42
2719.19
2699.12
2677.21
2653.51
2627.97
2600.48
2571.03
2539.37
2505.68
2469.68
2431.85
2391.9
2350.34
2306.91
2262.07
2216.03
2168.55
2120.13
2070.41
2020.77
1970.63
1919.05
1868.05
1817.02
1766.46
1717.62
1668.66
1622.19
1576.13
1531.39
1488.46
1448.22
1413.63
1347.07
2790.08
2791.73
2802.67
2827.57
2849.75
2858.77
2858.37
2850.76
2834.09
2819.02
2809.36
2804.25
2802.85
2802.77
2802.86
2801.99
2799.27
2796.02
2793.44
2791.4
2789.6
2788.05
2786.76
2785.74
2784.98
2784.49
2784.28
2784.33
2784.73
2785.34
2786.14
2787.05
2788.04
2789.05
2790
2790.86
2791.67
2792.46
2793.31
2794.29
2795.45
2796.79
2798.31
2800.04
2802.01
2804.25
2806.73
2809.39
2812.19
2815.09
2818.09
2821.17
2824.34
2827.61
2830.96
2834.38
2837.86
2841.38
2844.89
2848.38
2851.82
2855.18
2858.43
2861.56
2864.54
2867.33
2869.9
2872.22
2874.24
2875.91
2877.22
2878.1
2878.51
2878.47
2877.72
2876.42
2874.37
2871.56
2867.92
2863.34
2857.78
2851.16
2843.36
2834.31
2823.91
2811.98
2798.51
2783.47
2766.78
2748.34
2728.09
2705.86
2681.51
2654.99
2626.16
2595.21
2562.04
2526.92
2489.51
2450.23
2408.84
2365.89
2321.05
2274.7
2226.93
2178.24
2128.75
2078.18
2027.49
1976.46
1927.39
1877.86
1830.12
1781.14
1734.61
1688.35
1645.32
1603.73
1563.81
1527.06
1457.37
2790.02
2790.7
2797.48
2819.26
2845.37
2858.69
2860.38
2856.41
2841.27
2825.14
2814.34
2808.63
2807.04
2807.19
2807.58
2807.32
2805.24
2802.18
2799.62
2797.63
2795.96
2794.54
2793.4
2792.54
2791.95
2791.64
2791.59
2791.86
2792.41
2793.21
2794.19
2795.29
2796.48
2797.7
2798.87
2799.96
2800.96
2801.95
2802.99
2804.16
2805.51
2807.06
2808.81
2810.77
2812.97
2815.46
2818.21
2821.17
2824.29
2827.54
2830.89
2834.34
2837.91
2841.58
2845.36
2849.24
2853.21
2857.24
2861.31
2865.39
2869.46
2873.49
2877.45
2881.33
2885.11
2888.76
2892.24
2895.52
2898.56
2901.35
2903.84
2905.98
2907.71
2908.99
2909.8
2910.1
2909.79
2908.79
2907.07
2904.49
2901.07
2896.69
2891.24
2884.68
2876.89
2867.78
2857.3
2845.37
2831.83
2816.59
2799.56
2780.57
2759.6
2736.58
2711.4
2684.16
2654.8
2623.39
2589.65
2553.92
2515.97
2476.06
2433.8
2389.86
2344.21
2296.8
2247.46
2196.55
2144.97
2092.34
2039.87
1985.27
1931.64
1877.79
1824.02
1773.18
1724.66
1679.56
1638.3
1602.08
1526.32
2790
2790.25
2793.93
2811.1
2839
2857.57
2862.29
2860.5
2848.02
2831.48
2819.68
2813.26
2811.19
2811.26
2811.87
2812.09
2810.74
2808.06
2805.62
2803.78
2802.28
2801.01
2800.04
2799.35
2798.94
2798.8
2798.96
2799.39
2800.12
2801.11
2802.25
2803.52
2804.88
2806.3
2807.67
2808.96
2810.16
2811.33
2812.54
2813.88
2815.42
2817.17
2819.14
2821.32
2823.76
2826.48
2829.49
2832.74
2836.17
2839.75
2843.44
2847.26
2851.19
2855.26
2859.45
2863.76
2868.19
2872.72
2877.32
2881.96
2886.62
2891.28
2895.92
2900.51
2905.04
2909.49
2913.82
2918
2922
2925.8
2929.37
2932.65
2935.63
2938.24
2940.42
2942.14
2943.36
2944.03
2944.17
2943.48
2942.13
2939.91
2936.73
2932.61
2927.37
2920.96
2913.33
2904.34
2893.86
2881.82
2868.08
2852.54
2835.22
2816.02
2794.83
2771.68
2746.48
2719.21
2689.65
2657.97
2623.88
2587.58
2548.95
2508.61
2466.26
2421.9
2375.4
2327.62
2278.95
2229.16
2177.35
2124.48
2071.07
2019.11
1965.34
1912.45
1855.79
1802.29
1751.32
1703.5
1612.3
2790
2790.08
2791.84
2803.99
2831.28
2855.17
2863.25
2863.05
2854.38
2838.27
2825.33
2817.78
2814.97
2814.82
2815.82
2816.6
2815.93
2813.78
2811.58
2809.9
2808.59
2807.47
2806.67
2806.14
2805.93
2805.97
2806.33
2806.94
2807.86
2809
2810.31
2811.72
2813.23
2814.79
2816.34
2817.8
2819.17
2820.5
2821.88
2823.39
2825.09
2827.03
2829.21
2831.61
2834.26
2837.21
2840.46
2843.97
2847.7
2851.58
2855.61
2859.76
2864.05
2868.47
2873.05
2877.77
2882.63
2887.61
2892.69
2897.86
2903.07
2908.32
2913.58
2918.83
2924.07
2929.25
2934.37
2939.4
2944.3
2949.06
2953.64
2958.02
2962.14
2965.98
2969.49
2972.63
2975.36
2977.59
2979.31
2980.45
2980.98
2980.87
2979.8
2977.98
2975.16
2971.31
2966.38
2960.2
2952.69
2943.78
2933.37
2921.36
2907.73
2892.33
2875.02
2855.7
2834.21
2810.53
2784.54
2756.3
2725.52
2692.49
2657.14
2619.75
2580.01
2538.24
2494.23
2448.44
2400.84
2351.99
2301.68
2249.62
2196.79
2143.84
2092.16
2038.79
1985.02
1932.14
1883.78
1841.68
1764.03
2790
2790.02
2790.77
2798.52
2822.99
2851.1
2863.05
2865.25
2860.08
2845.09
2830.68
2821.95
2818.44
2818.13
2819.58
2821.08
2820.94
2819.37
2817.41
2815.88
2814.75
2813.84
2813.24
2812.92
2812.88
2813.18
2813.7
2814.49
2815.56
2816.86
2818.29
2819.82
2821.43
2823.11
2824.8
2826.41
2827.93
2829.41
2830.95
2832.61
2834.47
2836.59
2838.96
2841.57
2844.44
2847.6
2851.08
2854.86
2858.86
2863.04
2867.38
2871.86
2876.48
2881.25
2886.19
2891.29
2896.55
2901.96
2907.51
2913.16
2918.89
2924.69
2930.54
2936.41
2942.29
2948.17
2954.03
2959.83
2965.56
2971.2
2976.71
2982.08
2987.27
2992.23
2996.94
3001.35
3005.43
3009.14
3012.42
3015.22
3017.45
3019.11
3020.12
3020.46
3019.94
3018.53
3016.15
3012.62
3007.99
3002.12
2994.92
2986.27
2976.08
2964.18
2950.47
2934.83
2917.11
2897.34
2875.46
2851.41
2825.01
2796.48
2765.54
2732.22
2696.45
2658.73
2618.72
2576.31
2531.33
2484.83
2436.67
2386.72
2334.34
2280.51
2226.33
2171.54
2116.67
2055.16
1996.48
1942.92
1848.46
2790
2790.01
2790.29
2794.8
2814.97
2845.52
2862.15
2867.45
2864.67
2851.06
2835.52
2825.97
2821.89
2821.44
2823.2
2825.54
2825.83
2824.7
2822.98
2821.63
2820.74
2820.12
2819.77
2819.69
2819.87
2820.35
2821.03
2821.98
2823.19
2824.61
2826.15
2827.76
2829.44
2831.21
2833
2834.73
2836.39
2838.01
2839.69
2841.5
2843.52
2845.8
2848.35
2851.16
2854.23
2857.6
2861.3
2865.31
2869.57
2874.03
2878.66
2883.44
2888.38
2893.47
2898.75
2904.2
2909.83
2915.64
2921.6
2927.7
2933.91
2940.21
2946.59
2953.03
2959.51
2966.02
2972.55
2979.07
2985.56
2992
2998.37
3004.66
3010.82
3016.83
3022.65
3028.25
3033.59
3038.64
3043.35
3047.68
3051.57
3054.99
3057.83
3060.06
3061.61
3062.42
3062.56
3061.54
3059.7
3056.7
3052.49
3047
3040.08
3031.63
3021.6
3009.84
2996.24
2980.76
2963.32
2943.84
2922.14
2898.25
2871.79
2842.9
2811.62
2778.25
2742.44
2704.08
2663.11
2620.27
2575.56
2529.23
2480.49
2429.92
2377.85
2325.62
2272.77
2220.3
2163.66
2111.83
2019.38
2790
2790
2790.11
2792.54
2808.01
2838.93
2860.91
2869
2867.49
2856.35
2840.32
2830.04
2825.4
2824.73
2826.57
2829.74
2830.49
2829.7
2828.26
2827.19
2826.61
2826.33
2826.25
2826.37
2826.74
2827.36
2828.18
2829.26
2830.59
2832.11
2833.74
2835.41
2837.14
2838.97
2840.84
2842.69
2844.46
2846.21
2848.03
2849.98
2852.15
2854.59
2857.31
2860.31
2863.57
2867.14
2871.04
2875.28
2879.79
2884.52
2889.42
2894.49
2899.73
2905.13
2910.72
2916.5
2922.48
2928.66
2935.01
2941.52
2948.17
2954.94
2961.82
2968.78
2975.81
2982.91
2990.05
2997.23
3004.42
3011.59
3018.75
3025.86
3032.9
3039.85
3046.68
3053.34
3059.82
3066.08
3072.09
3077.79
3083.16
3088.14
3092.68
3096.74
3100.23
3103.07
3105.25
3106.66
3107.28
3107.03
3105.56
3103.11
3099.34
3094.28
3087.84
3079.87
3070.24
3058.84
3045.53
3030.19
3012.66
2992.86
2970.59
2946
2918.87
2889.3
2857.15
2822.64
2785.64
2746.16
2704.32
2660.52
2614.4
2566.4
2515.95
2464.54
2411.64
2358.4
2303.68
2248.88
2160.08
2790
2790
2790.04
2791.3
2802.57
2832.1
2859.02
2869.76
2869.37
2860.96
2845.05
2834.06
2828.75
2827.78
2829.6
2833.6
2834.93
2834.47
2833.41
2832.66
2832.4
2832.4
2832.54
2832.81
2833.29
2834.02
2834.97
2836.18
2837.64
2839.26
2840.97
2842.69
2844.46
2846.33
2848.27
2850.21
2852.1
2853.97
2855.92
2858.01
2860.33
2862.92
2865.81
2868.98
2872.43
2876.19
2880.3
2884.74
2889.49
2894.47
2899.64
2904.98
2910.49
2916.18
2922.06
2928.15
2934.44
2940.95
2947.66
2954.54
2961.6
2968.79
2976.11
2983.54
2991.07
2998.7
3006.4
3014.16
3021.97
3029.81
3037.67
3045.53
3053.36
3061.16
3068.89
3076.52
3084.03
3091.38
3098.56
3105.52
3112.22
3118.63
3124.7
3130.38
3135.62
3140.36
3144.56
3148.11
3150.95
3153.03
3154.26
3154.67
3153.91
3152.07
3149
3144.47
3138.52
3130.89
3121.5
3110.23
3097.01
3081.71
3064.19
3044.5
3022.27
2997.6
2970.41
2940.94
2908.86
2874.02
2836.55
2796.65
2754.57
2710.36
2663.3
2614.31
2562.41
2510.52
2455.23
2400.66
2317.18
2790
2790
2790.02
2790.67
2798.66
2825.75
2856.24
2870
2870.9
2864.89
2849.48
2837.73
2831.76
2830.47
2832.39
2837.22
2839.27
2839.16
2838.51
2838.02
2837.98
2838.16
2838.43
2838.79
2839.37
2840.23
2841.32
2842.69
2844.29
2846.02
2847.79
2849.55
2851.34
2853.23
2855.24
2857.26
2859.26
2861.25
2863.33
2865.56
2868.01
2870.75
2873.8
2877.15
2880.78
2884.73
2889.02
2893.67
2898.64
2903.85
2909.27
2914.87
2920.65
2926.6
2932.76
2939.12
2945.71
2952.52
2959.56
2966.79
2974.2
2981.78
2989.51
2997.37
3005.36
3013.46
3021.66
3029.96
3038.33
3046.77
3055.26
3063.78
3072.33
3080.88
3089.42
3097.91
3106.33
3114.65
3122.87
3130.93
3138.81
3146.49
3153.91
3161.04
3167.83
3174.24
3180.21
3185.68
3190.6
3194.91
3198.48
3201.3
3203.24
3204.25
3204.4
3203.03
3200.64
3196.74
3191.32
3184.33
3175.59
3165.01
3152.4
3137.68
3120.56
3101.08
3079.02
3054.52
3027.28
2997.39
2964.76
2929.44
2891.83
2851.7
2809.25
2764.41
2716.9
2668.03
2615.5
2561.66
2483.51
2790
2790
2790.01
2790.36
2796.06
2820.37
2853.14
2869.86
2872.3
2868.09
2853.33
2840.77
2834.37
2832.93
2835.12
2840.76
2843.59
2843.81
2843.45
2843.1
2843.16
2843.47
2843.82
2844.26
2844.99
2846.02
2847.31
2848.87
2850.61
2852.43
2854.23
2855.99
2857.78
2859.69
2861.75
2863.85
2865.95
2868.05
2870.24
2872.6
2875.19
2878.07
2881.27
2884.79
2888.6
2892.73
2897.21
2902.05
2907.23
2912.67
2918.33
2924.17
2930.19
2936.39
2942.8
2949.42
2956.28
2963.37
2970.7
2978.24
2985.98
2993.91
3002
3010.25
3018.64
3027.16
3035.81
3044.58
3053.45
3062.41
3071.45
3080.57
3089.74
3098.95
3108.19
3117.44
3126.66
3135.84
3144.96
3154
3162.93
3171.71
3180.32
3188.73
3196.9
3204.78
3212.33
3219.5
3226.24
3232.5
3238.22
3243.31
3247.72
3251.3
3254.07
3255.87
3256.7
3256.47
3254.69
3251.73
3247.08
3240.74
3232.55
3222.33
3209.89
3195.2
3177.95
3158.16
3135.59
3110.45
3082.37
3051.44
3017.73
2981.14
2942.13
2900.06
2855.56
2808.38
2758.81
2704.7
2633.25
2790
2790
2790
2790.22
2794.42
2816.2
2850.27
2869.67
2873.6
2870.57
2856.36
2843.18
2836.68
2835.27
2837.89
2844.33
2847.83
2848.3
2848.07
2847.78
2847.86
2848.34
2848.79
2849.37
2850.3
2851.55
2853.07
2854.8
2856.65
2858.52
2860.31
2862.05
2863.82
2865.73
2867.82
2870
2872.17
2874.37
2876.67
2879.14
2881.86
2884.87
2888.22
2891.9
2895.88
2900.19
2904.85
2909.89
2915.27
2920.92
2926.8
2932.87
2939.11
2945.55
2952.18
2959.04
2966.14
2973.49
2981.08
2988.91
2996.95
3005.18
3013.6
3022.19
3030.94
3039.84
3048.89
3058.07
3067.38
3076.81
3086.34
3095.97
3105.7
3115.49
3125.35
3135.25
3145.17
3155.1
3165.01
3174.9
3184.73
3194.47
3204.12
3213.63
3222.98
3232.13
3241.05
3249.69
3258.02
3265.98
3273.52
3280.6
3287.14
3293.08
3298.36
3302.87
3306.49
3309.21
3310.85
3311.46
3310.64
3308.32
3304.5
3298.85
3291.37
3281.84
3270.06
3255.93
3239.18
3219.93
3197.66
3172.63
3144.49
3113.44
3079.56
3042.35
3002.45
2958.94
2912.6
2860.32
2791.72
2790
2790
2790
2790.15
2793.48
2813.31
2848.01
2869.61
2874.8
2872.37
2858.51
2845.05
2838.76
2837.57
2840.73
2847.96
2851.91
2852.48
2852.27
2852.04
2852.2
2852.88
2853.48
2854.26
2855.43
2856.93
2858.65
2860.53
2862.44
2864.29
2866.04
2867.72
2869.45
2871.36
2873.48
2875.71
2877.95
2880.22
2882.61
2885.19
2888.02
2891.16
2894.66
2898.49
2902.64
2907.12
2911.96
2917.18
2922.76
2928.62
2934.71
2940.99
2947.44
2954.09
2960.94
2968.01
2975.34
2982.92
2990.75
2998.83
3007.13
3015.65
3024.36
3033.25
3042.32
3051.55
3060.94
3070.49
3080.19
3090.02
3099.98
3110.06
3120.25
3130.55
3140.94
3151.41
3161.93
3172.49
3183.09
3193.69
3204.29
3214.87
3225.39
3235.85
3246.21
3256.45
3266.53
3276.43
3286.11
3295.54
3304.66
3313.44
3321.82
3329.76
3337.19
3344.04
3350.23
3355.7
3360.3
3364
3366.67
3368.21
3368.66
3367.42
3364.82
3360.4
3353.99
3345.52
3334.64
3321.29
3304.97
3285.87
3263.32
3237.68
3208.43
3175.54
3139.08
3098.4
3054.78
3004.99
2939.89
2790
2790
2790
2790.13
2793.06
2811.7
2846.74
2869.79
2875.84
2873.58
2859.92
2846.53
2840.63
2839.79
2843.63
2851.58
2855.76
2856.36
2856.11
2855.95
2856.32
2857.18
2858
2859.01
2860.44
2862.16
2864.05
2866.01
2867.91
2869.68
2871.34
2872.94
2874.64
2876.55
2878.7
2880.98
2883.27
2885.61
2888.08
2890.75
2893.69
2896.96
2900.59
2904.58
2908.89
2913.53
2918.55
2923.96
2929.73
2935.79
2942.07
2948.54
2955.19
2962.03
2969.08
2976.35
2983.88
2991.67
2999.72
3008.02
3016.57
3025.33
3034.3
3043.46
3052.8
3062.33
3072.03
3081.9
3091.93
3102.11
3112.44
3122.91
3133.51
3144.25
3155.09
3166.04
3177.08
3188.19
3199.36
3210.59
3221.84
3233.11
3244.39
3255.64
3266.86
3278.01
3289.08
3300.04
3310.86
3321.51
3331.96
3342.17
3352.11
3361.72
3370.97
3379.79
3388.14
3395.95
3403.15
3409.67
3415.41
3420.22
3424.08
3426.76
3428.23
3428.48
3426.66
3423.36
3417.86
3410.09
3399.84
3386.97
3370.96
3352.08
3329.47
3303.43
3272.74
3237.03
3196.9
3149.52
3087.39
2790
2790
2790
2790.12
2792.96
2811.37
2846.56
2870.21
2876.68
2874.33
2860.65
2847.66
2842.25
2841.88
2846.59
2855.17
2859.42
2860
2859.71
2859.64
2860.26
2861.31
2862.36
2863.62
2865.28
2867.17
2869.15
2871.1
2872.92
2874.57
2876.12
2877.65
2879.33
2881.27
2883.46
2885.77
2888.12
2890.52
2893.06
2895.83
2898.88
2902.27
2906.04
2910.18
2914.65
2919.46
2924.66
2930.25
2936.21
2942.45
2948.92
2955.57
2962.4
2969.42
2976.64
2984.1
2991.81
2999.79
3008.04
3016.56
3025.31
3034.3
3043.49
3052.9
3062.49
3072.27
3082.24
3092.39
3102.71
3113.2
3123.85
3134.66
3145.61
3156.72
3167.96
3179.32
3190.79
3202.37
3214.03
3225.77
3237.58
3249.44
3261.34
3273.26
3285.19
3297.11
3309
3320.84
3332.6
3344.27
3355.82
3367.22
3378.44
3389.45
3400.21
3410.68
3420.82
3430.58
3439.9
3448.73
3456.99
3464.61
3471.48
3477.53
3482.56
3486.64
3489.44
3491
3491.28
3489.29
3485.87
3479.93
3471.35
3460.04
3445.13
3426.97
3403.43
3374.69
3338.92
3295.26
3235.75
2790
2790
2790
2790.12
2793.05
2811.82
2847.4
2871.06
2877.37
2874.71
2860.77
2848.49
2843.63
2843.8
2849.74
2858.78
2862.92
2863.43
2863.14
2863.17
2864.06
2865.29
2866.55
2868.03
2869.85
2871.82
2873.78
2875.64
2877.31
2878.84
2880.29
2881.79
2883.48
2885.47
2887.72
2890.09
2892.49
2894.95
2897.58
2900.44
2903.61
2907.13
2911.04
2915.33
2919.96
2924.94
2930.31
2936.09
2942.23
2948.65
2955.29
2962.11
2969.1
2976.28
2983.67
2991.29
2999.18
3007.33
3015.77
3024.47
3033.42
3042.61
3052.01
3061.63
3071.45
3081.46
3091.67
3102.06
3112.64
3123.4
3134.34
3145.44
3156.7
3168.13
3179.71
3191.43
3203.28
3215.26
3227.34
3239.53
3251.81
3264.16
3276.59
3289.07
3301.6
3314.16
3326.73
3339.29
3351.84
3364.35
3376.8
3389.17
3401.44
3413.58
3425.57
3437.38
3448.97
3460.31
3471.35
3482.06
3492.38
3502.27
3511.65
3520.48
3528.67
3536.13
3542.75
3548.29
3552.86
3555.94
3557.7
3557.91
3555.6
3551.52
3544.62
3535.09
3521.32
3503.18
3476.31
3443.52
3394.42
2790
2790
2790
2790.15
2793.44
2813.56
2849.52
2872.26
2877.87
2874.63
2860.5
2849.18
2844.87
2845.62
2853.11
2862.35
2866.26
2866.69
2866.43
2866.66
2867.79
2869.19
2870.57
2872.18
2874.06
2876
2877.83
2879.52
2881.03
2882.43
2883.83
2885.34
2887.09
2889.16
2891.49
2893.93
2896.39
2898.92
2901.64
2904.61
2907.9
2911.55
2915.61
2920.05
2924.84
2930
2935.56
2941.52
2947.83
2954.42
2961.22
2968.19
2975.33
2982.66
2990.2
2997.98
3006.02
3014.35
3022.95
3031.83
3040.96
3050.33
3059.92
3069.73
3079.75
3089.97
3100.39
3111.01
3121.82
3132.82
3144
3155.36
3166.9
3178.61
3190.49
3202.52
3214.7
3227.02
3239.47
3252.04
3264.73
3277.51
3290.39
3303.36
3316.39
3329.49
3342.63
3355.81
3369.01
3382.21
3395.41
3408.58
3421.71
3434.77
3447.76
3460.64
3473.4
3486
3498.42
3510.64
3522.6
3534.29
3545.65
3556.63
3567.18
3577.23
3586.7
3595.51
3603.58
3610.8
3616.97
3622.15
3625.87
3628.13
3628.78
3626.94
3622.85
3615.06
3600.49
3582.67
3551.58
2790
2790
2790
2790.2
2794.29
2816.44
2852.47
2873.62
2878.18
2873.98
2859.74
2849.7
2846.18
2847.68
2856.7
2865.75
2869.29
2869.71
2869.58
2870.08
2871.48
2873.01
2874.44
2876.07
2877.86
2879.62
2881.24
2882.72
2884.08
2885.39
2886.78
2888.34
2890.2
2892.4
2894.82
2897.34
2899.87
2902.48
2905.3
2908.38
2911.79
2915.59
2919.79
2924.39
2929.35
2934.68
2940.42
2946.56
2953.04
2959.79
2966.73
2973.84
2981.12
2988.58
2996.26
3004.19
3012.39
3020.87
3029.64
3038.68
3047.98
3057.52
3067.29
3077.28
3087.48
3097.89
3108.51
3119.33
3130.35
3141.57
3152.98
3164.58
3176.36
3188.33
3200.47
3212.78
3225.25
3237.88
3250.64
3263.55
3276.58
3289.74
3303.01
3316.38
3329.84
3343.4
3357.02
3370.71
3384.45
3398.24
3412.04
3425.87
3439.7
3453.52
3467.3
3481.05
3494.73
3508.33
3521.83
3535.21
3548.44
3561.5
3574.35
3586.96
3599.3
3611.33
3622.99
3634.26
3645.06
3655.33
3664.95
3673.89
3681.94
3688.95
3694.93
3699.41
3702.68
3703.77
3701.67
3696.34
3685.91
2790
2790
2790.01
2790.31
2795.65
2820.42
2856.05
2875.04
2878.33
2872.71
2858.63
2850.1
2847.59
2850.34
2860.6
2868.91
2871.91
2872.37
2872.51
2873.41
2875.09
2876.71
2878.12
2879.64
2881.2
2882.68
2884.04
2885.3
2886.52
2887.79
2889.21
2890.88
2892.87
2895.2
2897.74
2900.34
2902.95
2905.66
2908.58
2911.79
2915.33
2919.27
2923.63
2928.39
2933.52
2939.03
2944.95
2951.26
2957.9
2964.78
2971.86
2979.09
2986.49
2994.08
3001.89
3009.95
3018.29
3026.92
3035.84
3045.04
3054.49
3064.2
3074.13
3084.28
3094.66
3105.24
3116.04
3127.04
3138.26
3149.68
3161.3
3173.11
3185.12
3197.32
3209.71
3222.28
3235.01
3247.91
3260.97
3274.18
3287.53
3301.01
3314.62
3328.35
3342.19
3356.14
3370.18
3384.3
3398.5
3412.76
3427.07
3441.43
3455.82
3470.23
3484.65
3499.06
3513.45
3527.82
3542.13
3556.37
3570.53
3584.58
3598.5
3612.28
3625.88
3639.27
3652.41
3665.29
3677.82
3689.96
3701.67
3712.88
3723.51
3733.5
3742.68
3751.02
3758.28
3764.29
3768.88
3770.67
3772.73
2790
2790
2790.01
2790.52
2797.7
2825.41
2859.94
2876.38
2878.27
2870.88
2857.29
2850.41
2849.12
2853.78
2864.85
2871.95
2874.19
2874.63
2875.11
2876.52
2878.47
2880.11
2881.43
2882.74
2884.01
2885.17
2886.25
2887.32
2888.44
2889.71
2891.21
2893.01
2895.17
2897.65
2900.31
2903
2905.69
2908.5
2911.54
2914.87
2918.54
2922.63
2927.16
2932.08
2937.37
2943.05
2949.14
2955.61
2962.4
2969.41
2976.6
2983.95
2991.46
2999.16
3007.1
3015.29
3023.77
3032.54
3041.6
3050.94
3060.55
3070.4
3080.48
3090.79
3101.32
3112.07
3123.03
3134.2
3145.59
3157.19
3169
3181
3193.21
3205.62
3218.22
3231.01
3243.98