/*--------------------------------*- C++ -*----------------------------------*\
| =========                 |                                                 |
| \\      /  F ield         | OpenFOAM: The Open Source CFD Toolbox           |
|  \\    /   O peration     | Version:  2412                                  |
|   \\  /    A nd           | Website:  www.openfoam.com                      |
|    \\/     M anipulation  |                                                 |
\*---------------------------------------------------------------------------*/
FoamFile
{
    version     2.0;
    format      ascii;
    arch        "LSB;label=32;scalar=64";
    class       volScalarField;
    location    "0.027";
    object      rho;
}
// * * * * * * * * * * * * * * * * * * * * * * * * * * * * * * * * * * * * * //

dimensions      [1 -3 0 0 0 0 0];

internalField   nonuniform List<scalar> 
78650
(
0.042133
0.042133
0.042133
0.042133
0.042133
0.042133
0.042133
0.042133
0.042133
0.042133
0.042133
0.042133
0.042133
0.0421332
0.0421389
0.0421921
0.0423641
0.0425849
0.0426982
0.0427357
0.0427014
0.0425572
0.042359
0.0421925
0.0420758
0.0419981
0.0419532
0.0419223
0.0418886
0.0418471
0.0418002
0.0417532
0.0417079
0.0416644
0.0416237
0.0415872
0.0415546
0.0415245
0.0414965
0.0414711
0.0414492
0.0414308
0.0414157
0.0414036
0.041394
0.0413865
0.0413808
0.0413766
0.0413732
0.0413703
0.0413675
0.041365
0.0413627
0.0413609
0.0413597
0.0413592
0.0413591
0.0413587
0.0413578
0.0413563
0.0413542
0.0413514
0.0413474
0.0413417
0.0413339
0.0413235
0.0413101
0.0412934
0.041273
0.0412481
0.0412182
0.0411825
0.0411404
0.041091
0.0410335
0.040967
0.0408905
0.0408027
0.0407025
0.0405885
0.0404592
0.0403134
0.0401492
0.039965
0.039759
0.0395301
0.0392759
0.0389949
0.0386835
0.038343
0.0379693
0.0375648
0.037117
0.0366357
0.0361069
0.0355475
0.0349513
0.0343142
0.0336475
0.0329389
0.0321958
0.0314222
0.0306589
0.0298945
0.0291204
0.0283748
0.0276561
0.0269141
0.0261818
0.0254704
0.024794
0.0241872
0.0236404
0.0231491
0.0226992
0.0222522
0.0218343
0.0214319
0.0210578
0.0207104
0.0201028
0.042133
0.042133
0.042133
0.042133
0.042133
0.042133
0.042133
0.042133
0.042133
0.042133
0.042133
0.042133
0.042133
0.0421331
0.0421363
0.0421732
0.0423213
0.0425502
0.0426956
0.0427471
0.0427237
0.0426037
0.0424081
0.0422355
0.0421131
0.0420318
0.0419853
0.0419559
0.0419255
0.041887
0.0418419
0.0417953
0.0417502
0.041707
0.0416668
0.0416309
0.0415994
0.0415707
0.0415444
0.0415205
0.0415
0.041483
0.0414694
0.0414587
0.0414502
0.0414439
0.0414396
0.0414369
0.0414354
0.0414347
0.0414345
0.0414346
0.0414351
0.0414361
0.0414378
0.0414403
0.0414433
0.0414461
0.0414486
0.0414506
0.0414521
0.0414531
0.0414533
0.0414521
0.0414493
0.0414443
0.0414366
0.0414261
0.0414123
0.0413947
0.0413727
0.0413456
0.0413129
0.0412736
0.0412272
0.0411727
0.0411093
0.0410358
0.040951
0.0408538
0.0407428
0.0406166
0.0404739
0.0403129
0.040132
0.0399294
0.0397026
0.03945
0.0391688
0.0388594
0.0385166
0.0381411
0.0377252
0.0372789
0.0367923
0.0362795
0.0357249
0.0351298
0.0344828
0.0337974
0.0330987
0.0323698
0.0316225
0.030845
0.0300399
0.0292219
0.0284485
0.0276871
0.0269638
0.0262614
0.0255683
0.0249204
0.0242924
0.0236961
0.023162
0.0226684
0.022226
0.0218068
0.0214146
0.0210422
0.0204036
0.042133
0.042133
0.042133
0.042133
0.042133
0.042133
0.042133
0.042133
0.042133
0.042133
0.042133
0.042133
0.042133
0.0421331
0.0421347
0.0421589
0.04228
0.042508
0.0426859
0.0427551
0.0427405
0.0426477
0.0424603
0.0422819
0.0421525
0.0420671
0.0420183
0.0419897
0.041962
0.0419266
0.0418834
0.0418372
0.0417924
0.0417498
0.0417104
0.0416753
0.0416451
0.0416181
0.0415935
0.0415713
0.0415523
0.0415368
0.0415247
0.0415153
0.0415081
0.041503
0.0414999
0.0414986
0.0414988
0.0415
0.0415019
0.0415044
0.0415076
0.0415114
0.0415159
0.0415214
0.0415275
0.0415338
0.0415398
0.0415454
0.0415507
0.0415556
0.04156
0.0415634
0.0415653
0.0415656
0.0415636
0.0415592
0.041552
0.0415414
0.0415271
0.0415083
0.0414845
0.041455
0.0414191
0.041376
0.0413249
0.0412647
0.0411945
0.0411129
0.0410187
0.0409108
0.0407877
0.0406478
0.0404892
0.0403102
0.0401091
0.0398847
0.0396349
0.0393587
0.0390509
0.0387113
0.0383344
0.0379265
0.0374787
0.0369995
0.0364736
0.0359152
0.0353202
0.0346783
0.0340046
0.033273
0.0325235
0.0317456
0.0309853
0.0301925
0.0293908
0.0285765
0.0277599
0.0269936
0.0262443
0.0255483
0.0248815
0.0242409
0.0236403
0.0230705
0.0225356
0.022006
0.0215384
0.0211332
0.0204399
0.042133
0.042133
0.042133
0.042133
0.042133
0.042133
0.042133
0.042133
0.042133
0.042133
0.042133
0.042133
0.042133
0.0421331
0.0421338
0.0421485
0.0422418
0.0424588
0.0426665
0.0427586
0.042754
0.0426902
0.0425165
0.0423327
0.0421953
0.0421051
0.0420527
0.0420236
0.0419979
0.0419655
0.0419246
0.0418795
0.0418353
0.0417937
0.0417552
0.0417213
0.0416924
0.0416672
0.0416445
0.0416239
0.0416065
0.0415923
0.0415816
0.0415736
0.0415677
0.0415637
0.0415618
0.0415617
0.0415635
0.0415663
0.0415701
0.0415748
0.0415802
0.0415865
0.0415938
0.0416021
0.0416113
0.0416208
0.0416303
0.0416395
0.0416485
0.0416573
0.0416658
0.0416737
0.0416803
0.0416856
0.041689
0.0416904
0.0416895
0.0416858
0.041679
0.041668
0.0416529
0.0416327
0.0416069
0.0415748
0.0415355
0.0414883
0.0414322
0.0413659
0.0412884
0.0411985
0.0410948
0.0409759
0.0408402
0.0406861
0.0405119
0.040316
0.0400959
0.0398498
0.0395727
0.039265
0.0389232
0.0385522
0.0381452
0.0377068
0.0372234
0.0367055
0.0361384
0.0355304
0.0348785
0.0341866
0.0334662
0.032718
0.0319342
0.0311436
0.0303154
0.0295129
0.0286766
0.0278629
0.0270813
0.0263131
0.0255983
0.0249388
0.0243118
0.0237243
0.0231722
0.0226085
0.0220493
0.0215359
0.020679
0.042133
0.042133
0.042133
0.042133
0.042133
0.042133
0.042133
0.042133
0.042133
0.042133
0.042133
0.042133
0.042133
0.042133
0.0421334
0.0421416
0.0422085
0.0424046
0.0426353
0.042758
0.042767
0.0427289
0.0425735
0.0423868
0.0422417
0.0421457
0.0420881
0.0420574
0.042033
0.0420036
0.0419656
0.0419223
0.0418793
0.0418389
0.0418018
0.0417692
0.0417418
0.0417184
0.0416977
0.0416789
0.041663
0.0416501
0.0416407
0.0416339
0.0416293
0.0416266
0.0416258
0.0416271
0.0416303
0.0416347
0.0416403
0.0416468
0.0416543
0.0416629
0.0416726
0.0416836
0.0416957
0.0417085
0.0417214
0.0417342
0.0417469
0.0417597
0.0417723
0.0417845
0.0417959
0.0418062
0.041815
0.0418221
0.0418271
0.0418299
0.0418303
0.0418271
0.0418204
0.0418091
0.041793
0.0417713
0.0417433
0.0417083
0.0416654
0.0416135
0.0415514
0.0414782
0.0413925
0.0412931
0.0411785
0.041047
0.0408968
0.0407264
0.0405336
0.0403171
0.0400735
0.0398033
0.0395028
0.0391727
0.0388039
0.0383983
0.0379468
0.0374608
0.0369301
0.0363675
0.0357631
0.0351126
0.0344168
0.0336851
0.0328945
0.0321107
0.0312945
0.0304536
0.0296272
0.0287619
0.0279343
0.0270745
0.026253
0.0255036
0.0248003
0.0241563
0.0235743
0.0230275
0.0225199
0.0220375
0.0211853
0.042133
0.042133
0.042133
0.042133
0.042133
0.042133
0.042133
0.042133
0.042133
0.042133
0.042133
0.042133
0.042133
0.042133
0.0421332
0.0421373
0.0421815
0.042348
0.0425919
0.042751
0.0427805
0.0427598
0.0426308
0.042447
0.0422939
0.0421888
0.0421238
0.04209
0.0420669
0.042041
0.0420071
0.0419666
0.0419253
0.0418865
0.041851
0.0418198
0.0417939
0.0417724
0.0417535
0.0417365
0.041722
0.0417103
0.041702
0.0416962
0.0416927
0.0416913
0.0416916
0.0416944
0.0416989
0.041705
0.0417122
0.0417205
0.0417299
0.0417406
0.0417526
0.041766
0.0417809
0.0417967
0.0418129
0.0418292
0.0418456
0.0418621
0.0418788
0.0418953
0.0419113
0.0419264
0.0419404
0.0419531
0.0419641
0.0419732
0.04198
0.0419843
0.0419855
0.041983
0.0419763
0.0419647
0.0419475
0.0419243
0.0418941
0.0418561
0.0418092
0.0417524
0.0416845
0.0416043
0.0415105
0.0414015
0.0412755
0.0411314
0.0409669
0.0407806
0.0405692
0.0403321
0.0400645
0.039766
0.0394306
0.0390621
0.0386546
0.0382141
0.0377291
0.0372053
0.036629
0.0360103
0.0353487
0.0346446
0.0339118
0.0331123
0.032327
0.0314749
0.0306625
0.0298068
0.0289675
0.0281226
0.0272649
0.026443
0.0256046
0.0248099
0.0240734
0.0233819
0.0227813
0.0222466
0.0212465
0.042133
0.042133
0.042133
0.042133
0.042133
0.042133
0.042133
0.042133
0.042133
0.042133
0.042133
0.042133
0.042133
0.042133
0.0421331
0.0421349
0.0421615
0.0422929
0.0425375
0.042734
0.0427887
0.0427837
0.0426885
0.0425128
0.0423497
0.0422325
0.0421593
0.0421219
0.0421002
0.0420783
0.0420492
0.0420126
0.0419735
0.0419366
0.0419028
0.0418731
0.0418486
0.0418288
0.0418118
0.0417966
0.0417834
0.0417728
0.0417655
0.0417606
0.0417582
0.0417578
0.0417595
0.0417634
0.0417695
0.0417772
0.0417862
0.0417963
0.0418076
0.0418202
0.0418343
0.04185
0.0418674
0.0418861
0.0419056
0.0419253
0.0419452
0.0419655
0.0419861
0.0420068
0.0420274
0.0420473
0.0420665
0.0420845
0.0421012
0.0421166
0.0421301
0.0421414
0.04215
0.0421556
0.0421578
0.0421559
0.0421493
0.0421373
0.042119
0.042094
0.042061
0.0420194
0.0419679
0.0419055
0.0418308
0.0417426
0.0416392
0.0415192
0.0413804
0.0412216
0.0410402
0.0408358
0.0406039
0.0403436
0.0400494
0.0397232
0.0393591
0.0389604
0.0385187
0.0380392
0.0375122
0.036945
0.0363275
0.0356616
0.0349601
0.0341738
0.0333627
0.0325206
0.0316389
0.0307735
0.0298692
0.0290246
0.0281799
0.0273814
0.0265661
0.0257785
0.0250234
0.0242795
0.0235599
0.0228959
0.0217067
0.042133
0.042133
0.042133
0.042133
0.042133
0.042133
0.042133
0.042133
0.042133
0.042133
0.042133
0.042133
0.042133
0.042133
0.0421331
0.0421338
0.042148
0.0422431
0.042473
0.0427037
0.0427905
0.0428057
0.0427438
0.0425815
0.042407
0.0422764
0.0421959
0.0421548
0.0421344
0.0421165
0.0420928
0.0420608
0.0420245
0.0419895
0.0419576
0.0419294
0.0419061
0.0418879
0.0418725
0.0418589
0.0418469
0.0418373
0.0418307
0.0418266
0.0418253
0.0418258
0.0418288
0.0418339
0.0418415
0.0418509
0.0418616
0.0418735
0.0418867
0.0419013
0.0419175
0.0419354
0.0419552
0.0419766
0.041999
0.042022
0.0420453
0.0420692
0.0420936
0.0421183
0.0421432
0.0421678
0.0421919
0.0422151
0.0422375
0.0422587
0.0422785
0.0422967
0.0423128
0.0423263
0.0423367
0.0423437
0.0423468
0.0423458
0.0423394
0.0423272
0.0423076
0.0422808
0.0422453
0.0422003
0.0421445
0.0420767
0.0419953
0.0418989
0.0417858
0.0416547
0.0415034
0.0413303
0.0411307
0.040904
0.0406464
0.0403603
0.0400403
0.0396872
0.0392919
0.0388564
0.0383718
0.0378446
0.0372664
0.0366454
0.0359784
0.0352718
0.0344977
0.0336985
0.0328222
0.0319358
0.0309949
0.0300435
0.0290985
0.0281472
0.0272655
0.0264235
0.0256362
0.0248819
0.0241689
0.0235258
0.0223539
0.042133
0.042133
0.042133
0.042133
0.042133
0.042133
0.042133
0.042133
0.042133
0.042133
0.042133
0.042133
0.042133
0.042133
0.042133
0.0421333
0.04214
0.0422021
0.0424025
0.0426585
0.0427867
0.0428266
0.0427913
0.0426477
0.0424647
0.0423225
0.0422356
0.0421897
0.0421698
0.0421554
0.0421372
0.0421106
0.0420778
0.0420449
0.0420148
0.0419881
0.0419659
0.0419489
0.0419349
0.0419226
0.0419117
0.041903
0.041897
0.0418938
0.0418933
0.0418953
0.0418992
0.0419057
0.0419147
0.0419258
0.0419383
0.0419521
0.0419673
0.041984
0.0420022
0.0420223
0.0420443
0.0420683
0.0420936
0.0421197
0.0421464
0.0421737
0.0422018
0.0422305
0.0422596
0.0422887
0.0423176
0.0423459
0.0423737
0.0424006
0.0424266
0.0424513
0.0424743
0.0424953
0.042514
0.0425299
0.0425422
0.0425507
0.0425549
0.042555
0.0425483
0.0425355
0.0425146
0.0424855
0.0424468
0.0423977
0.0423366
0.0422623
0.0421732
0.0420678
0.0419439
0.0418001
0.0416335
0.0414437
0.0412266
0.0409818
0.0407022
0.0403877
0.0400315
0.0396368
0.0391977
0.0387179
0.0381894
0.0376167
0.0369885
0.0363099
0.0355846
0.0348042
0.0339944
0.033133
0.032262
0.0313305
0.0303977
0.0294046
0.0284412
0.0274581
0.0265014
0.0255833
0.0247072
0.0239362
0.0224696
0.042133
0.042133
0.042133
0.042133
0.042133
0.042133
0.042133
0.042133
0.042133
0.042133
0.042133
0.042133
0.042133
0.042133
0.042133
0.0421331
0.0421359
0.042172
0.0423315
0.0425975
0.0427771
0.0428425
0.0428228
0.0427109
0.042528
0.0423752
0.0422796
0.0422269
0.042206
0.0421948
0.0421822
0.0421618
0.0421332
0.0421026
0.0420743
0.0420489
0.0420273
0.042011
0.0419981
0.041987
0.041977
0.0419692
0.0419638
0.0419616
0.041962
0.0419653
0.0419705
0.0419784
0.0419889
0.0420015
0.0420158
0.0420315
0.0420487
0.0420675
0.0420878
0.0421101
0.0421344
0.0421608
0.0421888
0.0422179
0.0422478
0.0422784
0.0423099
0.0423423
0.0423754
0.0424088
0.0424423
0.0424755
0.0425084
0.0425408
0.0425726
0.0426035
0.0426333
0.0426615
0.0426878
0.0427119
0.0427333
0.0427517
0.0427662
0.0427765
0.0427822
0.042783
0.0427767
0.0427634
0.0427415
0.0427106
0.0426692
0.0426162
0.0425501
0.0424694
0.0423723
0.0422576
0.0421223
0.0419653
0.0417822
0.0415727
0.0413315
0.0410592
0.0407503
0.0404059
0.0400185
0.0395875
0.0391055
0.0385762
0.037993
0.0373607
0.036668
0.0359199
0.0351205
0.0342477
0.033347
0.0324078
0.031484
0.0305462
0.0296092
0.0286695
0.0276981
0.0267728
0.0258526
0.0250026
0.0234185
0.042133
0.042133
0.042133
0.042133
0.042133
0.042133
0.042133
0.042133
0.042133
0.042133
0.042133
0.042133
0.042133
0.042133
0.042133
0.0421331
0.0421341
0.0421525
0.0422672
0.042523
0.0427531
0.0428487
0.0428442
0.0427705
0.0425972
0.0424334
0.0423261
0.0422655
0.042243
0.0422348
0.0422273
0.0422135
0.0421896
0.0421612
0.0421343
0.0421097
0.0420885
0.0420725
0.0420605
0.0420506
0.0420418
0.0420349
0.0420303
0.042029
0.0420308
0.0420355
0.0420422
0.0420516
0.0420635
0.0420778
0.0420938
0.0421115
0.0421307
0.0421516
0.0421742
0.0421986
0.0422252
0.042254
0.0422847
0.0423167
0.0423497
0.0423835
0.0424184
0.0424544
0.0424912
0.0425288
0.0425667
0.0426046
0.0426424
0.0426801
0.0427174
0.0427543
0.0427904
0.0428255
0.0428592
0.0428911
0.042921
0.0429483
0.0429727
0.0429938
0.0430106
0.0430226
0.0430296
0.043031
0.0430247
0.0430107
0.0429874
0.0429539
0.042909
0.0428515
0.0427796
0.042692
0.0425862
0.0424614
0.0423137
0.0421421
0.0419414
0.0417116
0.0414475
0.0411499
0.0408125
0.0404349
0.0400105
0.0395395
0.0390149
0.0384407
0.0378063
0.0371158
0.0363644
0.0355599
0.0346725
0.0337204
0.0327068
0.0316767
0.0306011
0.0295762
0.028528
0.0275472
0.0266034
0.0257678
0.0241724
0.042133
0.042133
0.042133
0.042133
0.042133
0.042133
0.042133
0.042133
0.042133
0.042133
0.042133
0.042133
0.042133
0.042133
0.042133
0.042133
0.0421334
0.0421416
0.0422153
0.0424405
0.0427077
0.0428464
0.0428619
0.0428234
0.0426682
0.042495
0.0423749
0.0423073
0.0422823
0.0422761
0.0422723
0.0422639
0.0422447
0.0422185
0.042193
0.0421691
0.0421482
0.0421325
0.0421215
0.0421129
0.0421056
0.0420999
0.0420963
0.0420959
0.0420995
0.0421056
0.042114
0.042125
0.0421385
0.0421543
0.0421721
0.0421916
0.0422128
0.0422358
0.0422606
0.0422873
0.0423161
0.0423473
0.0423805
0.0424154
0.0424513
0.0424882
0.0425263
0.0425656
0.042606
0.0426474
0.0426895
0.0427318
0.0427743
0.042817
0.0428596
0.0429021
0.0429442
0.0429857
0.0430263
0.0430656
0.0431035
0.0431394
0.043173
0.0432039
0.0432316
0.0432557
0.043275
0.0432891
0.0432977
0.0433001
0.0432946
0.0432803
0.0432559
0.0432202
0.043172
0.0431101
0.0430322
0.0429371
0.0428213
0.0426838
0.0425205
0.0423321
0.0421134
0.0418636
0.0415751
0.0412466
0.0408716
0.0404506
0.0399784
0.0394556
0.0388727
0.0382364
0.0375402
0.036788
0.0359791
0.0351016
0.0341657
0.0331893
0.0321364
0.0310793
0.0299192
0.0288059
0.0276828
0.0266554
0.024701
0.042133
0.042133
0.042133
0.042133
0.042133
0.042133
0.042133
0.042133
0.042133
0.042133
0.042133
0.042133
0.042133
0.042133
0.042133
0.042133
0.0421331
0.0421363
0.0421782
0.0423583
0.0426429
0.042833
0.0428797
0.0428621
0.0427356
0.04256
0.0424282
0.042353
0.0423228
0.0423158
0.0423134
0.0423094
0.0422958
0.0422731
0.0422494
0.0422265
0.0422062
0.0421907
0.0421808
0.0421738
0.0421683
0.0421641
0.0421618
0.0421624
0.0421677
0.0421754
0.0421857
0.0421984
0.0422135
0.0422309
0.0422504
0.0422717
0.0422949
0.04232
0.042347
0.0423759
0.042407
0.0424404
0.0424762
0.0425138
0.0425526
0.0425925
0.0426337
0.0426762
0.0427201
0.0427652
0.0428111
0.0428577
0.0429047
0.0429521
0.0429997
0.0430475
0.0430953
0.0431429
0.04319
0.0432363
0.0432816
0.0433256
0.0433678
0.043408
0.0434456
0.0434803
0.0435113
0.0435383
0.0435602
0.0435764
0.0435864
0.0435897
0.0435843
0.0435693
0.0435435
0.0435054
0.0434537
0.043387
0.0433025
0.0431995
0.0430739
0.042925
0.0427469
0.0425387
0.0422945
0.0420141
0.0416917
0.0413258
0.0409103
0.0404428
0.0399158
0.0393318
0.0386802
0.0379684
0.0371855
0.036336
0.0354164
0.034425
0.0333962
0.0323382
0.0312521
0.0301693
0.0290781
0.0280448
0.0260902
0.042133
0.042133
0.042133
0.042133
0.042133
0.042133
0.042133
0.042133
0.042133
0.042133
0.042133
0.042133
0.042133
0.042133
0.042133
0.042133
0.0421331
0.0421341
0.042155
0.0422848
0.0425634
0.0428062
0.0428876
0.0428868
0.0427998
0.0426307
0.0424866
0.0423992
0.0423603
0.0423508
0.0423498
0.0423506
0.0423434
0.0423256
0.0423047
0.0422832
0.0422638
0.0422485
0.0422396
0.042234
0.0422305
0.0422281
0.0422271
0.0422292
0.0422357
0.0422451
0.0422573
0.0422717
0.0422884
0.0423074
0.0423286
0.0423518
0.0423768
0.0424039
0.042433
0.0424641
0.0424973
0.042533
0.0425711
0.0426112
0.0426529
0.0426957
0.0427398
0.0427853
0.0428324
0.0428809
0.0429305
0.042981
0.0430322
0.043084
0.0431363
0.0431891
0.0432422
0.0432954
0.0433486
0.0434014
0.0434537
0.0435051
0.0435554
0.0436043
0.0436513
0.043696
0.043738
0.0437767
0.0438115
0.0438419
0.0438668
0.0438856
0.0438975
0.0439021
0.0438976
0.0438822
0.0438552
0.0438146
0.0437588
0.0436865
0.0435943
0.0434812
0.0433423
0.0431775
0.042981
0.0427524
0.0424856
0.0421784
0.0418245
0.0414211
0.0409622
0.0404464
0.0398623
0.0392171
0.0384998
0.0377141
0.036846
0.0358875
0.0348725
0.0337447
0.0325966
0.0313105
0.0300785
0.0289449
0.0267693
0.042133
0.042133
0.042133
0.042133
0.042133
0.042133
0.042133
0.042133
0.042133
0.042133
0.042133
0.042133
0.042133
0.042133
0.042133
0.042133
0.042133
0.0421334
0.0421425
0.0422263
0.0424764
0.0427614
0.0428841
0.0429085
0.0428576
0.042703
0.0425441
0.0424425
0.0423947
0.042383
0.0423844
0.0423901
0.0423884
0.0423764
0.0423592
0.0423397
0.0423213
0.0423064
0.0422982
0.0422942
0.0422927
0.0422924
0.0422929
0.0422964
0.0423041
0.0423151
0.0423288
0.0423449
0.0423631
0.0423837
0.0424066
0.0424315
0.0424585
0.0424875
0.0425186
0.0425517
0.042587
0.0426247
0.042665
0.0427076
0.0427519
0.0427975
0.0428445
0.042893
0.0429431
0.0429948
0.0430479
0.0431021
0.0431573
0.0432132
0.0432699
0.0433274
0.0433855
0.043444
0.0435028
0.0435617
0.0436205
0.0436789
0.0437367
0.0437936
0.0438492
0.0439032
0.0439552
0.0440047
0.0440511
0.0440939
0.0441326
0.0441665
0.0441944
0.0442156
0.0442293
0.044235
0.0442313
0.0442156
0.0441873
0.0441441
0.0440841
0.0440058
0.0439051
0.0437816
0.0436299
0.0434494
0.0432336
0.0429801
0.0426827
0.0423383
0.0419409
0.0414872
0.040969
0.0403893
0.0397361
0.0390145
0.0382142
0.0373366
0.0363766
0.0353465
0.0342619
0.033084
0.0318137
0.0306014
0.028281
0.042133
0.042133
0.042133
0.042133
0.042133
0.042133
0.042133
0.042133
0.042133
0.042133
0.042133
0.042133
0.042133
0.042133
0.042133
0.042133
0.042133
0.0421331
0.0421367
0.0421851
0.0423902
0.042699
0.0428726
0.0429304
0.0429027
0.0427676
0.0425986
0.0424857
0.0424298
0.0424156
0.0424189
0.0424298
0.042432
0.0424251
0.0424123
0.0423955
0.042379
0.042365
0.0423576
0.0423551
0.0423553
0.0423575
0.0423595
0.0423643
0.0423731
0.0423854
0.0424005
0.042418
0.0424377
0.0424597
0.0424842
0.0425109
0.0425397
0.0425705
0.0426034
0.0426384
0.0426757
0.0427153
0.0427576
0.0428024
0.0428492
0.0428975
0.0429471
0.0429984
0.0430513
0.0431061
0.0431624
0.04322
0.0432788
0.0433387
0.0433994
0.0434612
0.0435238
0.0435873
0.0436513
0.0437158
0.0437806
0.0438454
0.04391
0.0439743
0.0440379
0.0441005
0.0441618
0.0442213
0.0442785
0.0443331
0.0443845
0.044432
0.044475
0.0445128
0.0445443
0.0445684
0.0445844
0.0445917
0.0445891
0.0445728
0.0445427
0.0444959
0.0444305
0.0443452
0.0442352
0.0440993
0.0439309
0.0437283
0.0434854
0.0431989
0.042863
0.0424734
0.0420226
0.0415082
0.0409188
0.0402585
0.039515
0.0386916
0.0377653
0.036746
0.0356285
0.0345102
0.0331611
0.031993
0.029847
0.042133
0.042133
0.042133
0.042133
0.042133
0.042133
0.042133
0.042133
0.042133
0.042133
0.042133
0.042133
0.042133
0.042133
0.042133
0.042133
0.042133
0.0421331
0.0421343
0.0421597
0.0423135
0.0426235
0.0428556
0.0429433
0.0429306
0.0428262
0.0426545
0.0425308
0.0424669
0.0424488
0.0424521
0.042468
0.0424744
0.0424712
0.0424635
0.042451
0.0424373
0.0424249
0.0424182
0.0424168
0.0424189
0.0424228
0.0424263
0.0424324
0.0424423
0.0424556
0.042472
0.0424906
0.0425116
0.0425351
0.0425611
0.0425895
0.04262
0.0426526
0.0426873
0.0427241
0.0427631
0.0428045
0.0428487
0.0428956
0.0429447
0.0429954
0.0430476
0.0431015
0.0431572
0.0432147
0.043274
0.0433349
0.0433971
0.0434605
0.0435251
0.0435909
0.0436578
0.0437258
0.0437947
0.0438643
0.0439346
0.0440054
0.0440764
0.0441474
0.0442183
0.0442888
0.0443585
0.0444271
0.0444942
0.0445593
0.0446221
0.0446821
0.0447385
0.0447908
0.0448382
0.04488
0.0449152
0.0449424
0.0449609
0.0449698
0.0449686
0.0449514
0.0449196
0.0448691
0.0447976
0.0447032
0.0445808
0.044429
0.0442418
0.0440162
0.0437463
0.0434267
0.0430505
0.0426131
0.0421051
0.0415273
0.0408636
0.040117
0.0392687
0.0383377
0.0372882
0.0361737
0.0348502
0.0335362
0.031178
0.042133
0.042133
0.042133
0.042133
0.042133
0.042133
0.042133
0.042133
0.042133
0.042133
0.042133
0.042133
0.042133
0.042133
0.042133
0.042133
0.042133
0.042133
0.0421335
0.0421457
0.0422524
0.0425424
0.0428269
0.0429477
0.0429488
0.042878
0.0427116
0.0425769
0.0425038
0.0424806
0.0424826
0.0425032
0.0425162
0.0425165
0.042514
0.0425065
0.0424962
0.0424856
0.0424792
0.0424783
0.0424821
0.0424876
0.0424925
0.0424999
0.0425108
0.0425253
0.0425427
0.0425626
0.0425849
0.0426097
0.0426373
0.0426673
0.0426995
0.0427337
0.04277
0.0428085
0.0428492
0.0428923
0.0429381
0.0429869
0.043038
0.043091
0.0431456
0.0432019
0.04326
0.0433202
0.0433822
0.043446
0.0435114
0.0435781
0.0436462
0.0437156
0.0437865
0.0438586
0.0439319
0.0440062
0.0440815
0.0441576
0.0442344
0.0443116
0.0443891
0.0444667
0.0445441
0.044621
0.0446971
0.0447719
0.0448452
0.0449165
0.0449853
0.045051
0.045113
0.0451706
0.0452229
0.0452694
0.0453089
0.0453393
0.0453606
0.0453711
0.0453709
0.0453523
0.0453178
0.0452623
0.0451838
0.04508
0.044945
0.0447757
0.0445654
0.0443089
0.0439995
0.0436314
0.0431954
0.042689
0.0420996
0.0414286
0.0406572
0.0397928
0.0388128
0.0377259
0.0365239
0.0352921
0.0331917
0.042133
0.042133
0.042133
0.042133
0.042133
0.042133
0.042133
0.042133
0.042133
0.042133
0.042133
0.042133
0.042133
0.042133
0.042133
0.042133
0.042133
0.042133
0.0421332
0.0421387
0.0422084
0.0424639
0.0427841
0.0429446
0.0429648
0.0429222
0.0427665
0.0426199
0.042538
0.04251
0.042511
0.0425362
0.0425581
0.0425631
0.0425639
0.042561
0.0425535
0.0425445
0.0425381
0.0425374
0.0425429
0.0425498
0.0425562
0.042565
0.0425772
0.0425928
0.0426115
0.0426328
0.0426565
0.0426828
0.042712
0.0427436
0.0427775
0.0428133
0.0428511
0.0428911
0.0429334
0.042978
0.0430255
0.0430759
0.0431289
0.043184
0.0432407
0.0432993
0.0433598
0.0434223
0.0434869
0.0435534
0.0436217
0.0436915
0.0437628
0.0438357
0.0439101
0.043986
0.0440634
0.0441421
0.0442219
0.044303
0.044385
0.0444678
0.0445514
0.0446354
0.0447198
0.0448042
0.0448883
0.0449718
0.0450545
0.0451359
0.0452157
0.0452933
0.0453683
0.04544
0.0455078
0.045571
0.0456287
0.0456801
0.0457241
0.0457581
0.0457822
0.0457943
0.0457947
0.045775
0.0457374
0.0456761
0.0455881
0.0454697
0.0453151
0.0451195
0.0448766
0.04458
0.0442216
0.0437951
0.0432887
0.0427019
0.042018
0.0412334
0.0403099
0.0392724
0.0380758
0.0367838
0.0347064
0.042133
0.042133
0.042133
0.042133
0.042133
0.042133
0.042133
0.042133
0.042133
0.042133
0.042133
0.042133
0.042133
0.042133
0.042133
0.042133
0.042133
0.042133
0.0421331
0.0421356
0.0421793
0.0423944
0.0427331
0.0429356
0.0429807
0.0429573
0.0428144
0.0426579
0.0425697
0.0425384
0.0425393
0.0425687
0.0425999
0.04261
0.0426125
0.0426119
0.0426064
0.0425988
0.0425928
0.0425926
0.0425999
0.0426085
0.0426164
0.0426267
0.0426402
0.0426572
0.0426774
0.0427003
0.0427257
0.0427538
0.0427846
0.0428179
0.0428534
0.0428908
0.0429302
0.0429718
0.0430155
0.0430617
0.0431107
0.0431626
0.0432174
0.0432744
0.0433331
0.0433937
0.0434564
0.0435212
0.0435881
0.0436571
0.0437279
0.0438005
0.0438748
0.0439507
0.0440284
0.0441077
0.0441887
0.0442713
0.0443553
0.0444407
0.0445274
0.0446153
0.0447042
0.0447941
0.0448846
0.0449757
0.0450671
0.0451584
0.0452494
0.0453399
0.0454296
0.0455179
0.0456046
0.045689
0.0457706
0.0458489
0.0459231
0.0459925
0.0460561
0.0461128
0.0461615
0.0461993
0.0462264
0.0462401
0.0462408
0.0462187
0.0461761
0.0461064
0.0460074
0.0458734
0.0456988
0.0454764
0.0451982
0.0448559
0.0444384
0.0439406
0.0433465
0.0426483
0.0418269
0.040898
0.0397938
0.0386078
0.0367303
0.042133
0.042133
0.042133
0.042133
0.042133
0.042133
0.042133
0.042133
0.042133
0.042133
0.042133
0.042133
0.042133
0.042133
0.042133
0.042133
0.042133
0.042133
0.0421331
0.0421342
0.0421614
0.0423376
0.0426807
0.0429231
0.0429955
0.0429805
0.0428538
0.0426921
0.0426002
0.0425666
0.0425678
0.0426006
0.0426399
0.0426541
0.0426573
0.0426578
0.0426541
0.0426483
0.0426434
0.0426447
0.0426538
0.042664
0.0426734
0.0426849
0.0426997
0.0427181
0.04274
0.0427647
0.0427919
0.0428218
0.0428544
0.0428895
0.0429267
0.0429657
0.0430067
0.0430499
0.0430952
0.0431429
0.0431933
0.0432467
0.0433031
0.0433618
0.0434224
0.0434849
0.0435495
0.0436163
0.0436854
0.0437566
0.0438298
0.0439049
0.0439819
0.0440606
0.0441412
0.0442237
0.044308
0.0443941
0.0444818
0.0445712
0.0446621
0.0447546
0.0448483
0.0449434
0.0450395
0.0451366
0.0452344
0.0453327
0.0454312
0.0455298
0.0456281
0.045726
0.0458229
0.0459184
0.0460122
0.0461037
0.0461925
0.0462778
0.0463588
0.0464349
0.0465045
0.0465669
0.0466207
0.0466624
0.0466925
0.0467077
0.0467085
0.0466835
0.0466361
0.0465562
0.0464418
0.0462838
0.0460756
0.0458076
0.04547
0.0450559
0.0445505
0.0439424
0.0432105
0.0423318
0.0412886
0.040087
0.0383833
0.042133
0.042133
0.042133
0.042133
0.042133
0.042133
0.042133
0.042133
0.042133
0.042133
0.042133
0.042133
0.042133
0.042133
0.042133
0.042133
0.042133
0.042133
0.042133
0.0421336
0.042151
0.0422945
0.0426325
0.0429108
0.0430058
0.0429964
0.042886
0.0427232
0.04263
0.0425941
0.0425953
0.0426306
0.0426761
0.0426941
0.0426983
0.0426998
0.0426983
0.042695
0.0426917
0.0426949
0.0427059
0.0427175
0.0427281
0.0427405
0.0427563
0.0427759
0.0427993
0.0428257
0.0428547
0.0428865
0.0429209
0.0429578
0.0429968
0.0430376
0.0430803
0.0431251
0.043172
0.0432213
0.0432732
0.0433281
0.0433859
0.0434463
0.0435086
0.0435729
0.0436393
0.0437079
0.0437789
0.0438521
0.0439275
0.044005
0.0440843
0.0441656
0.0442488
0.0443341
0.0444214
0.0445106
0.0446017
0.0446946
0.0447893
0.0448857
0.0449838
0.0450835
0.0451845
0.0452869
0.0453904
0.0454948
0.0455998
0.0457054
0.0458114
0.0459175
0.0460235
0.0461288
0.0462333
0.0463364
0.0464379
0.0465372
0.0466337
0.0467266
0.046815
0.0468981
0.0469745
0.047043
0.0471023
0.0471483
0.0471815
0.047198
0.0471981
0.0471669
0.04711
0.0470143
0.0468785
0.0466905
0.0464422
0.0461222
0.0457145
0.0452085
0.0445775
0.0437928
0.042859
0.0417082
0.0401638
0.042133
0.042133
0.042133
0.042133
0.042133
0.042133
0.042133
0.042133
0.042133
0.042133
0.042133
0.042133
0.042133
0.042133
0.042133
0.042133
0.042133
0.042133
0.042133
0.0421334
0.0421452
0.0422643
0.0425928
0.0428996
0.0430123
0.0430084
0.0429119
0.0427505
0.0426582
0.0426191
0.0426202
0.0426586
0.0427092
0.0427309
0.0427371
0.0427403
0.042741
0.0427406
0.0427393
0.0427443
0.0427573
0.04277
0.0427815
0.0427944
0.0428107
0.0428313
0.0428559
0.0428837
0.0429144
0.0429478
0.042984
0.0430227
0.0430635
0.0431062
0.0431507
0.0431972
0.0432458
0.0432966
0.04335
0.0434063
0.0434657
0.0435275
0.0435915
0.0436574
0.0437254
0.0437957
0.0438685
0.0439436
0.0440209
0.0441004
0.0441819
0.0442654
0.0443511
0.0444389
0.0445288
0.0446208
0.0447148
0.0448109
0.0449089
0.045009
0.0451108
0.0452145
0.04532
0.045427
0.0455355
0.0456453
0.0457561
0.0458679
0.0459806
0.046094
0.0462077
0.0463216
0.0464354
0.0465486
0.0466611
0.0467725
0.0468822
0.0469898
0.0470944
0.0471954
0.0472917
0.0473825
0.0474663
0.0475414
0.0476066
0.0476569
0.0476932
0.0477107
0.0477092
0.0476726
0.0476064
0.0474929
0.0473304
0.0471036
0.0467991
0.0464032
0.0458775
0.0451929
0.0443382
0.0432514
0.0418029
0.042133
0.042133
0.042133
0.042133
0.042133
0.042133
0.042133
0.042133
0.042133
0.042133
0.042133
0.042133
0.042133
0.042133
0.042133
0.042133
0.042133
0.042133
0.042133
0.0421333
0.0421423
0.0422451
0.0425642
0.0428912
0.0430165
0.0430186
0.0429316
0.0427729
0.0426822
0.0426414
0.0426425
0.0426856
0.042741
0.0427662
0.0427747
0.0427802
0.0427834
0.0427853
0.0427862
0.0427931
0.0428078
0.0428214
0.0428335
0.0428467
0.0428635
0.0428847
0.0429101
0.0429391
0.0429711
0.043006
0.0430439
0.0430843
0.043127
0.0431715
0.0432178
0.0432661
0.0433164
0.0433688
0.0434238
0.0434816
0.0435423
0.0436057
0.0436711
0.0437385
0.0438081
0.04388
0.0439543
0.0440311
0.0441102
0.0441915
0.044275
0.0443606
0.0444484
0.0445385
0.0446308
0.0447253
0.0448219
0.0449208
0.0450218
0.0451249
0.0452302
0.0453375
0.0454467
0.0455578
0.0456707
0.0457851
0.0459011
0.0460183
0.0461367
0.0462563
0.0463769
0.0464981
0.0466198
0.0467418
0.0468637
0.0469855
0.0471066
0.0472267
0.0473452
0.0474615
0.047575
0.0476849
0.0477899
0.0478893
0.047981
0.0480637
0.0481356
0.0481911
0.048231
0.0482489
0.0482438
0.0481954
0.0481095
0.0479649
0.0477553
0.047462
0.0470464
0.0464802
0.0457196
0.0447214
0.043377
0.042133
0.042133
0.042133
0.042133
0.042133
0.042133
0.042133
0.042133
0.042133
0.042133
0.042133
0.042133
0.042133
0.042133
0.042133
0.042133
0.042133
0.042133
0.042133
0.0421332
0.0421411
0.0422357
0.0425488
0.0428884
0.0430212
0.0430279
0.042945
0.0427892
0.0427001
0.0426613
0.0426633
0.0427134
0.0427728
0.0428009
0.0428115
0.0428194
0.0428248
0.0428284
0.0428315
0.0428403
0.0428563
0.0428708
0.0428835
0.0428971
0.0429143
0.0429362
0.0429624
0.0429922
0.0430253
0.0430616
0.0431008
0.0431429
0.0431872
0.0432334
0.0432815
0.0433315
0.0433836
0.0434377
0.0434941
0.0435534
0.0436156
0.0436804
0.0437473
0.0438161
0.0438871
0.0439605
0.0440363
0.0441146
0.0441953
0.0442783
0.0443635
0.044451
0.0445407