/*--------------------------------*- C++ -*----------------------------------*\
| =========                 |                                                 |
| \\      /  F ield         | OpenFOAM: The Open Source CFD Toolbox           |
|  \\    /   O peration     | Version:  2406                                  |
|   \\  /    A nd           | Website:  www.openfoam.com                      |
|    \\/     M anipulation  |                                                 |
\*---------------------------------------------------------------------------*/
FoamFile
{
    version     2.0;
    format      ascii;
    arch        "LSB;label=32;scalar=64";
    class       volScalarField;
    location    "0.027";
    object      rho;
}
// * * * * * * * * * * * * * * * * * * * * * * * * * * * * * * * * * * * * * //

dimensions      [1 -3 0 0 0 0 0];

internalField   nonuniform List<scalar> 
78650
(
0.0426787
0.0426304
0.0426952
0.0426867
0.0425742
0.0423811
0.0421979
0.0420513
0.0419451
0.0418741
0.041831
0.0417957
0.0417515
0.0416954
0.0416354
0.0415806
0.0415321
0.0414866
0.0414423
0.0414003
0.0413613
0.0413255
0.0412931
0.0412644
0.0412395
0.0412183
0.0412003
0.0411849
0.0411717
0.0411599
0.0411481
0.0411349
0.0411192
0.0411008
0.0410807
0.0410596
0.0410385
0.0410177
0.0409973
0.040977
0.040957
0.0409375
0.0409188
0.0409007
0.0408828
0.0408645
0.0408454
0.040825
0.0408033
0.04078
0.0407549
0.0407276
0.0406976
0.0406646
0.0406278
0.0405868
0.040541
0.0404897
0.0404324
0.0403687
0.0402977
0.0402187
0.0401309
0.0400333
0.0399251
0.0398057
0.0396741
0.0395293
0.0393706
0.0391972
0.0390085
0.038804
0.0385818
0.0383407
0.0380799
0.0377993
0.0374993
0.0371783
0.036834
0.0364676
0.0360799
0.0356708
0.0352392
0.0347871
0.0343161
0.033828
0.0333159
0.032779
0.0322311
0.0316957
0.0311433
0.0305846
0.0300155
0.0294436
0.0288953
0.0283552
0.0278343
0.0273453
0.0268895
0.0264457
0.0260138
0.0255846
0.0251777
0.0247791
0.0244053
0.0240539
0.0237339
0.0234222
0.0231186
0.0228204
0.0225412
0.0222844
0.0220534
0.0218588
0.0216839
0.0215169
0.0213526
0.0211879
0.0210231
0.0208716
0.0206197
0.0425853
0.0426254
0.0427098
0.0427066
0.0426204
0.0424353
0.0422439
0.0420903
0.0419808
0.041908
0.0418661
0.0418347
0.0417956
0.0417436
0.041685
0.0416299
0.0415813
0.0415363
0.0414931
0.0414523
0.0414148
0.0413808
0.0413503
0.0413233
0.0412999
0.04128
0.0412632
0.041249
0.0412372
0.0412271
0.0412175
0.0412069
0.041194
0.0411786
0.0411615
0.0411433
0.0411249
0.0411068
0.0410891
0.0410716
0.0410545
0.0410378
0.0410221
0.0410073
0.0409929
0.0409785
0.0409634
0.0409475
0.0409304
0.0409121
0.0408923
0.0408707
0.0408469
0.0408204
0.0407908
0.0407574
0.0407199
0.0406774
0.0406297
0.0405761
0.0405161
0.0404488
0.0403737
0.0402897
0.0401961
0.0400921
0.0399769
0.0398497
0.0397099
0.0395565
0.0393887
0.0392054
0.0390049
0.0387867
0.0385506
0.0382958
0.0380211
0.0377244
0.0374045
0.0370634
0.0367024
0.036322
0.0359219
0.035502
0.0350586
0.0345933
0.0341044
0.033603
0.0330887
0.0325619
0.0320238
0.0314683
0.030925
0.0303746
0.0298262
0.0292803
0.0287207
0.0281682
0.0276377
0.0271288
0.0266585
0.0262175
0.0257966
0.0253824
0.0249934
0.0246235
0.0242785
0.0239473
0.0236383
0.0233459
0.0230685
0.0227965
0.0225334
0.0222847
0.0220581
0.0218525
0.021658
0.0214686
0.0212873
0.0211139
0.0208383
0.0425012
0.042614
0.0427133
0.042723
0.0426619
0.0424891
0.0422912
0.0421314
0.0420185
0.0419436
0.041902
0.0418738
0.0418396
0.0417917
0.0417348
0.0416793
0.0416304
0.0415863
0.0415442
0.0415049
0.0414692
0.0414372
0.0414087
0.0413837
0.0413621
0.0413436
0.041328
0.041315
0.0413044
0.0412957
0.0412878
0.0412792
0.0412687
0.041256
0.0412416
0.0412263
0.0412108
0.0411956
0.0411807
0.0411662
0.0411521
0.0411386
0.041126
0.0411145
0.0411037
0.0410932
0.0410824
0.0410708
0.0410584
0.0410451
0.0410305
0.0410145
0.0409967
0.0409768
0.0409541
0.0409282
0.0408986
0.0408648
0.0408262
0.0407824
0.0407328
0.0406767
0.0406135
0.0405423
0.0404623
0.0403729
0.0402732
0.0401624
0.0400399
0.0399046
0.0397557
0.0395925
0.0394138
0.039219
0.0390072
0.0387769
0.0385272
0.038257
0.0379665
0.0376575
0.0373292
0.0369786
0.0366032
0.0362036
0.0357816
0.0353434
0.0348873
0.0344094
0.0339095
0.0333847
0.0328638
0.0323336
0.0317923
0.0312448
0.0306795
0.0301296
0.0295969
0.0290533
0.0285188
0.0279799
0.0274529
0.026941
0.0264403
0.0259589
0.0255082
0.0250837
0.0246808
0.0243048
0.0239609
0.0236453
0.0233506
0.0230697
0.022806
0.0225554
0.0223138
0.0220759
0.0218434
0.0216162
0.0214004
0.0212034
0.0208697
0.0424268
0.0425906
0.0427092
0.0427376
0.0426978
0.0425431
0.0423428
0.0421773
0.0420598
0.0419819
0.0419396
0.0419138
0.0418838
0.0418402
0.0417854
0.0417296
0.0416805
0.0416372
0.0415967
0.0415592
0.0415253
0.0414954
0.0414689
0.0414459
0.0414261
0.0414092
0.041395
0.0413831
0.0413736
0.041366
0.0413595
0.0413526
0.0413442
0.0413339
0.0413221
0.0413095
0.0412967
0.0412842
0.0412723
0.0412608
0.0412497
0.0412393
0.0412299
0.0412217
0.0412145
0.0412078
0.041201
0.0411938
0.041186
0.0411774
0.041168
0.0411574
0.0411454
0.0411316
0.0411156
0.041097
0.0410751
0.0410495
0.0410198
0.0409854
0.0409459
0.0409007
0.0408492
0.0407905
0.040724
0.040649
0.0405646
0.0404702
0.040365
0.0402481
0.0401189
0.0399766
0.0398197
0.0396476
0.0394595
0.039254
0.0390301
0.038787
0.0385242
0.0382422
0.037939
0.0376126
0.037264
0.0368945
0.0365037
0.0360925
0.0356575
0.0352039
0.0347338
0.0342459
0.033741
0.0332146
0.0326634
0.03211
0.0315617
0.0309992
0.0304463
0.0298917
0.0293556
0.028833
0.0283212
0.0278246
0.0273437
0.0268766
0.0264253
0.0259692
0.0255245
0.0250953
0.0247009
0.0243225
0.0239677
0.0236314
0.0233225
0.0230399
0.0227762
0.0225222
0.0222706
0.0220194
0.0217779
0.0215471
0.0211492
0.0423573
0.0425525
0.042701
0.0427504
0.0427244
0.0425977
0.0423997
0.0422278
0.0421043
0.0420232
0.0419791
0.0419547
0.0419284
0.0418892
0.0418369
0.0417812
0.0417319
0.0416897
0.0416511
0.0416156
0.0415838
0.0415559
0.0415315
0.0415105
0.0414924
0.0414772
0.0414644
0.0414539
0.0414455
0.0414392
0.0414339
0.0414286
0.0414219
0.0414137
0.0414043
0.0413941
0.0413839
0.0413741
0.0413649
0.0413564
0.0413484
0.0413412
0.041335
0.0413302
0.0413266
0.0413238
0.0413212
0.0413183
0.0413151
0.0413113
0.0413069
0.0413017
0.0412954
0.0412877
0.0412783
0.0412667
0.0412524
0.0412348
0.0412137
0.0411885
0.0411587
0.0411239
0.0410836
0.0410368
0.040983
0.0409216
0.0408516
0.0407726
0.0406837
0.040584
0.040473
0.0403498
0.0402132
0.0400629
0.0398977
0.0397158
0.0395168
0.0393001
0.0390656
0.0388128
0.0385389
0.0382423
0.0379234
0.0375827
0.0372209
0.03684
0.0364388
0.0360183
0.0355732
0.0351066
0.0346185
0.0341092
0.0335922
0.0330582
0.0325174
0.031959
0.0313892
0.0308097
0.030231
0.0296639
0.0290919
0.0285365
0.0280047
0.0275025
0.0270263
0.0265684
0.0261356
0.0257207
0.0253286
0.0249356
0.0245612
0.0242048
0.0238766
0.0235665
0.0232723
0.0229944
0.0227311
0.0224805
0.0222441
0.0220208
0.0216642
0.0422935
0.0425028
0.0426867
0.0427592
0.0427456
0.042652
0.0424625
0.0422838
0.0421532
0.0420681
0.0420206
0.0419962
0.0419726
0.0419379
0.0418891
0.0418345
0.0417854
0.0417444
0.041708
0.0416747
0.0416451
0.0416192
0.0415968
0.0415775
0.041561
0.0415473
0.0415359
0.0415267
0.0415197
0.0415146
0.0415107
0.0415068
0.041502
0.0414958
0.0414885
0.0414806
0.0414728
0.0414655
0.041459
0.0414533
0.0414483
0.0414441
0.0414411
0.0414397
0.0414396
0.0414406
0.041442
0.0414434
0.0414446
0.0414455
0.041446
0.0414461
0.0414453
0.0414435
0.0414403
0.0414356
0.0414285
0.0414186
0.0414058
0.0413894
0.0413691
0.0413444
0.0413149
0.0412797
0.0412384
0.0411903
0.0411346
0.0410708
0.0409982
0.0409158
0.0408231
0.0407192
0.0406032
0.0404745
0.0403317
0.0401737
0.0400002
0.0398104
0.0396028
0.0393758
0.0391274
0.0388583
0.0385706
0.0382641
0.0379371
0.0375878
0.0372136
0.036816
0.0363945
0.0359558
0.0354967
0.035018
0.0345203
0.0340009
0.0334632
0.0329209
0.0323758
0.0318264
0.0312701
0.0307202
0.0301536
0.0295926
0.0290362
0.0284739
0.0279187
0.0273806
0.0268685
0.0263815
0.0259166
0.0254643
0.0250423
0.0246521
0.0242898
0.0239417
0.0236028
0.0232819
0.022984
0.022702
0.0224362
0.0221935
0.0217254
0.0422394
0.0424439
0.0426611
0.0427627
0.0427628
0.0427036
0.042529
0.0423443
0.0422064
0.042116
0.0420632
0.0420372
0.0420158
0.0419859
0.0419421
0.0418897
0.0418413
0.0418017
0.0417677
0.0417367
0.0417092
0.0416853
0.0416647
0.041647
0.041632
0.0416196
0.0416096
0.0416017
0.041596
0.0415924
0.04159
0.0415878
0.0415849
0.0415807
0.0415755
0.0415699
0.0415643
0.0415593
0.0415552
0.0415521
0.0415501
0.0415489
0.041549
0.0415508
0.0415543
0.0415589
0.0415644
0.0415701
0.0415758
0.0415814
0.0415868
0.041592
0.0415967
0.0416007
0.0416037
0.0416054
0.0416056
0.0416032
0.0415985
0.0415908
0.0415795
0.0415645
0.0415453
0.0415212
0.0414917
0.0414561
0.0414138
0.0413642
0.0413067
0.0412404
0.0411647
0.0410789
0.0409819
0.0408735
0.0407524
0.0406174
0.0404682
0.0403032
0.0401214
0.0399221
0.0397043
0.0394685
0.039214
0.0389385
0.0386401
0.0383186
0.0379738
0.037607
0.0372173
0.0368065
0.0363701
0.0359153
0.0354387
0.0349467
0.0344376
0.0339088
0.0333635
0.0328123
0.0322452
0.0316797
0.0311234
0.0305662
0.0300288
0.0294881
0.0289638
0.0284523
0.0279512
0.0274473
0.0269584
0.0264725
0.0260177
0.025583
0.0251715
0.0247721
0.0243902
0.0240247
0.023675
0.0233358
0.0230209
0.0227197
0.0221597
0.0421975
0.0423791
0.0426195
0.0427604
0.0427791
0.0427479
0.042597
0.0424111
0.0422655
0.0421662
0.0421058
0.0420769
0.0420577
0.0420333
0.041996
0.0419476
0.0419004
0.0418621
0.0418303
0.0418017
0.0417763
0.0417541
0.0417351
0.0417187
0.041705
0.0416937
0.0416848
0.0416782
0.0416739
0.0416717
0.0416709
0.0416706
0.0416697
0.0416677
0.0416648
0.0416614
0.041658
0.0416552
0.0416535
0.0416529
0.0416535
0.0416553
0.0416584
0.0416631
0.0416698
0.0416781
0.0416875
0.0416973
0.0417074
0.0417175
0.0417277
0.0417378
0.0417478
0.0417574
0.0417664
0.0417743
0.0417811
0.0417861
0.041789
0.0417897
0.0417872
0.0417817
0.0417725
0.041759
0.041741
0.0417176
0.0416884
0.0416529
0.0416104
0.0415601
0.0415015
0.0414336
0.0413559
0.0412677
0.0411678
0.0410553
0.0409296
0.0407895
0.0406338
0.0404616
0.0402718
0.0400645
0.039839
0.0395928
0.0393249
0.0390349
0.0387224
0.038388
0.0380318
0.0376553
0.0372572
0.036841
0.0363998
0.0359379
0.0354521
0.0349455
0.0344166
0.0338754
0.0333107
0.032728
0.0321571
0.031564
0.0309739
0.0303837
0.0298053
0.0292485
0.0287025
0.0281677
0.0276625
0.0271805
0.0267252
0.0262815
0.0258474
0.0254243
0.0250326
0.0246689
0.0243226
0.0239841
0.0236682
0.0233852
0.0229119
0.0421682
0.0423142
0.0425634
0.0427479
0.0427933
0.0427815
0.042666
0.0424844
0.0423283
0.0422165
0.0421478
0.0421157
0.0420989
0.0420806
0.042051
0.0420079
0.0419624
0.0419252
0.0418955
0.0418691
0.0418456
0.0418251
0.0418074
0.0417922
0.0417795
0.0417692
0.0417614
0.041756
0.0417531
0.0417524
0.0417534
0.0417551
0.0417564
0.0417568
0.0417564
0.0417554
0.0417543
0.0417537
0.0417542
0.041756
0.0417591
0.0417635
0.0417694
0.0417772
0.0417871
0.0417988
0.0418119
0.0418258
0.0418402
0.0418548
0.0418697
0.0418847
0.0418998
0.0419148
0.0419296
0.0419438
0.0419572
0.0419693
0.0419797
0.041988
0.0419941
0.0419973
0.041998
0.0419946
0.0419877
0.041976
0.0419589
0.0419365
0.0419079
0.0418724
0.0418295
0.0417784
0.0417184
0.0416489
0.041569
0.041478
0.0413751
0.0412587
0.0411282
0.0409831
0.0408223
0.0406452
0.0404497
0.0402336
0.0399971
0.0397407
0.0394645
0.0391684
0.0388511
0.0385111
0.0381464
0.0377583
0.0373437
0.0369097
0.0364531
0.0359805
0.03549
0.0349778
0.0344556
0.0339108
0.033366
0.0327974
0.0322214
0.0316456
0.0310621
0.0304764
0.0298848
0.0292926
0.028724
0.0281752
0.0276388
0.027119
0.0266081
0.0261139
0.0256501
0.0252165
0.0248034
0.0243952
0.0239998
0.0236494
0.0229694
0.04215
0.042255
0.0424941
0.0427206
0.0427991
0.0428083
0.0427331
0.0425616
0.0423921
0.0422667
0.0421911
0.0421556
0.042141
0.042128
0.0421066
0.0420702
0.0420274
0.0419911
0.0419631
0.0419387
0.0419168
0.0418976
0.0418809
0.0418667
0.0418549
0.0418456
0.0418388
0.0418346
0.0418332
0.0418341
0.041837
0.0418405
0.0418441
0.0418471
0.0418493
0.0418508
0.0418521
0.0418538
0.0418564
0.0418604
0.0418659
0.0418729
0.0418815
0.0418921
0.041905
0.04192
0.0419366
0.0419544
0.0419728
0.0419917
0.042011
0.0420307
0.0420507
0.042071
0.0420913
0.0421114
0.042131
0.0421498
0.0421674
0.0421834
0.0421976
0.0422095
0.0422189
0.0422254
0.0422286
0.0422287
0.0422235
0.0422141
0.0421991
0.0421782
0.0421508
0.0421162
0.0420738
0.042023
0.0419628
0.0418927
0.0418116
0.0417185
0.0416127
0.0414934
0.041359
0.0412088
0.0410414
0.040856
0.0406533
0.0404323
0.0401915
0.0399294
0.0396446
0.0393359
0.0390033
0.0386479
0.0382674
0.0378653
0.0374369
0.0369885
0.0365151
0.0360229
0.0355092
0.0349808
0.0344325
0.0338746
0.0333039
0.0327406
0.0321754
0.0316027
0.031039
0.0304747
0.0299232
0.0293801
0.0288372
0.0283072
0.0277977
0.0273003
0.0268295
0.0263597
0.0259091
0.0254636
0.0250297
0.0246149
0.0238302
0.0421401
0.0422068
0.0424166
0.0426753
0.0427969
0.0428329
0.0427915
0.0426374
0.0424561
0.0423193
0.0422374
0.0421973
0.0421836
0.042175
0.0421619
0.0421338
0.0420947
0.0420591
0.0420321
0.0420093
0.0419886
0.0419704
0.0419545
0.0419411
0.0419303
0.0419219
0.0419163
0.0419137
0.0419137
0.0419168
0.0419212
0.0419269
0.0419329
0.0419385
0.0419434
0.0419475
0.0419513
0.0419552
0.0419601
0.0419663
0.0419741
0.0419836
0.0419948
0.0420081
0.0420238
0.0420419
0.042062
0.0420834
0.0421058
0.0421289
0.0421525
0.0421768
0.0422016
0.0422269
0.0422525
0.0422783
0.042304
0.0423292
0.0423537
0.0423771
0.042399
0.0424192
0.0424374
0.0424534
0.0424663
0.0424762
0.0424825
0.042485
0.0424829
0.0424756
0.0424628
0.0424433
0.0424172
0.0423835
0.0423416
0.042291
0.0422308
0.0421598
0.0420777
0.0419832
0.0418753
0.0417533
0.0416158
0.041462
0.0412916
0.0411031
0.0408948
0.0406658
0.0404147
0.0401407
0.039844
0.0395246
0.0391815
0.0388167
0.0384281
0.0380195
0.0375855
0.037131
0.0366518
0.0361523
0.0356317
0.035087
0.0345226
0.0339449
0.0333489
0.0327379
0.0321345
0.031533
0.0309286
0.0303401
0.0297504
0.029177
0.028632
0.0281093
0.0276159
0.0271197
0.0266481
0.0262053
0.0257982
0.025438
0.0247859
0.0421356
0.0421725
0.0423381
0.0426115
0.0427891
0.0428535
0.0428313
0.042709
0.0425256
0.0423781
0.0422873
0.0422405
0.0422264
0.0422218
0.0422166
0.0421981
0.0421637
0.0421286
0.0421017
0.0420795
0.0420596
0.0420421
0.0420271
0.0420148
0.0420051
0.0419982
0.0419941
0.0419929
0.041995
0.0419997
0.0420062
0.0420139
0.0420222
0.0420304
0.042038
0.0420446
0.0420508
0.042057
0.042064
0.0420724
0.0420825
0.0420944
0.0421081
0.0421239
0.0421423
0.0421633
0.0421866
0.0422115
0.0422376
0.0422646
0.0422924
0.042321
0.0423503
0.0423803
0.042411
0.0424421
0.0424735
0.0425049
0.0425358
0.0425661
0.0425954
0.0426235
0.04265
0.0426747
0.0426973
0.0427174
0.0427344
0.042748
0.0427579
0.0427636
0.0427651
0.0427606
0.0427507
0.042734
0.0427097
0.0426782
0.0426379
0.0425883
0.0425286
0.0424579
0.0423749
0.042279
0.0421692
0.0420447
0.041905
0.0417479
0.0415722
0.041377
0.0411617
0.0409261
0.0406706
0.0403946
0.0400965
0.0397762
0.0394306
0.0390615
0.0386655
0.0382475
0.0378038
0.0373401
0.0368528
0.0363469
0.0358243
0.0352821
0.0347253
0.0341498
0.0335711
0.0329822
0.0323718
0.0317636
0.0311501
0.0305375
0.0299411
0.0293385
0.0287614
0.0281821
0.0276087
0.0270436
0.0264962
0.0260086
0.0251138
0.0421338
0.0421515
0.0422677
0.0425319
0.0427666
0.042862
0.0428577
0.0427773
0.0426009
0.0424411
0.0423385
0.0422843
0.0422694
0.0422686
0.0422695
0.0422603
0.0422313
0.0421968
0.0421694
0.0421476
0.0421285
0.042112
0.0420983
0.0420874
0.0420793
0.0420741
0.0420719
0.0420724
0.0420766
0.0420831
0.0420916
0.0421013
0.0421119
0.0421226
0.0421327
0.0421419
0.0421504
0.0421589
0.0421679
0.0421784
0.0421907
0.0422049
0.0422211
0.0422395
0.0422604
0.0422842
0.0423105
0.0423388
0.0423685
0.0423993
0.042431
0.0424638
0.0424974
0.042532
0.0425675
0.0426038
0.0426406
0.0426778
0.042715
0.0427519
0.0427883
0.0428237
0.0428581
0.0428912
0.0429227
0.0429521
0.0429792
0.0430037
0.043025
0.0430427
0.0430564
0.0430657
0.0430701
0.0430697
0.0430618
0.0430481
0.0430265
0.0429968
0.0429585
0.0429102
0.0428515
0.0427815
0.0426991
0.0426034
0.0424931
0.0423667
0.0422236
0.0420637
0.0418859
0.0416891
0.0414726
0.0412343
0.0409726
0.0406868
0.0403752
0.0400396
0.0396785
0.0392947
0.0388841
0.0384511
0.0379926
0.0375142
0.0370122
0.0364901
0.0359487
0.0353933
0.0348249
0.0342401
0.0336495
0.0330507
0.0324704
0.0318805
0.0313078
0.0307162
0.0301496
0.02958
0.0290412
0.0285071
0.0279781
0.0274756
0.0265612
0.0421333
0.0421405
0.0422125
0.0424438
0.0427203
0.0428611
0.0428789
0.042837
0.0426769
0.042506
0.0423914
0.0423308
0.042314
0.0423156
0.0423196
0.0423169
0.0422948
0.0422623
0.042235
0.042214
0.0421961
0.042181
0.0421689
0.0421598
0.0421535
0.0421502
0.0421497
0.0421526
0.0421584
0.0421669
0.0421773
0.042189
0.0422016
0.0422146
0.0422271
0.0422386
0.0422493
0.0422598
0.0422708
0.0422832
0.0422976
0.042314
0.0423326
0.0423534
0.0423768
0.0424032
0.0424323
0.0424637
0.0424969
0.0425312
0.0425668
0.0426034
0.0426411
0.04268
0.0427199
0.042761
0.0428029
0.0428456
0.0428885
0.0429316
0.0429746
0.043017
0.0430589
0.0430998
0.0431396
0.043178
0.0432146
0.0432492
0.0432812
0.0433105
0.0433368
0.0433593
0.0433774
0.043391
0.0433995
0.0434026
0.0433993
0.0433888
0.0433708
0.0433437
0.0433078
0.0432617
0.0432044
0.0431353
0.0430533
0.0429572
0.0428466
0.0427205
0.0425773
0.0424158
0.042235
0.0420331
0.0418095
0.0415637
0.041294
0.0410014
0.0406851
0.0403456
0.0399795
0.0395902
0.039175
0.0387364
0.0382696
0.0377818
0.0372721
0.0367396
0.036182
0.0356028
0.0350119
0.0344046
0.0337948
0.0331555
0.032523
0.0318828
0.031238
0.0306215
0.0300238
0.0294546
0.0289176
0.0284303
0.0274527
0.0421331
0.0421357
0.0421748
0.0423572
0.042653
0.0428492
0.0428991
0.0428801
0.0427483
0.0425732
0.0424481
0.04238
0.042358
0.0423587
0.0423652
0.0423675
0.0423533
0.0423247
0.0422989
0.0422792
0.0422633
0.0422498
0.0422395
0.0422322
0.0422278
0.0422263
0.042228
0.0422326
0.0422404
0.0422508
0.042263
0.0422765
0.0422909
0.0423059
0.0423206
0.0423342
0.0423469
0.0423593
0.0423722
0.0423865
0.0424028
0.0424214
0.0424422
0.0424654
0.0424912
0.0425201
0.0425519
0.0425864
0.0426227
0.0426606
0.0426997
0.04274
0.0427816
0.0428246
0.0428689
0.0429144
0.0429612
0.043009
0.0430574
0.0431064
0.0431555
0.0432046
0.0432534
0.0433017
0.0433494
0.0433961
0.0434415
0.0434855
0.0435275
0.0435674
0.0436048
0.0436393
0.0436704
0.0436978
0.0437207
0.0437387
0.0437515
0.0437585
0.04376
0.0437528
0.0437387
0.0437155
0.0436822
0.043639
0.0435841
0.0435169
0.0434368
0.0433423
0.0432322
0.0431054
0.0429606
0.0427966
0.0426134
0.04241
0.042185
0.0419386
0.0416697
0.041378
0.0410608
0.0407197
0.0403512
0.0399574
0.0395364
0.0390949
0.0386289
0.0381385
0.0376214
0.037087
0.0365391
0.0359752
0.0353844
0.0347776
0.0341602
0.0335554
0.0329243
0.0322971
0.0316153
0.0309573
0.0303132
0.0296924
0.0285381
0.0421331
0.0421339
0.0421526
0.0422818
0.0425712
0.0428239
0.0429092
0.0429071
0.0428155
0.0426451
0.042508
0.0424279
0.0423981
0.0423965
0.0424071
0.0424154
0.0424083
0.0423855
0.0423621
0.0423443
0.0423303
0.0423185
0.04231
0.0423044
0.0423021
0.0423025
0.0423064
0.0423128
0.0423225
0.0423347
0.0423486
0.0423636
0.0423795
0.0423962
0.0424126
0.042428
0.0424426
0.0424567
0.0424713
0.0424873
0.0425054
0.0425259
0.042549
0.0425744
0.0426025
0.0426337
0.0426681
0.0427053
0.0427447
0.0427858
0.0428283
0.0428722
0.0429174
0.0429642
0.0430124
0.0430622
0.0431134
0.0431659
0.0432194
0.0432738
0.0433286
0.0433838
0.0434391
0.0434942
0.0435491
0.0436036
0.0436573
0.0437099
0.0437613
0.0438111
0.043859
0.0439048
0.043948
0.0439881
0.0440248
0.0440576
0.0440861
0.0441094
0.0441274
0.0441393
0.0441448
0.0441437
0.0441325
0.0441136
0.0440841
0.044044
0.0439925
0.043928
0.0438495
0.0437563
0.0436472
0.0435213
0.0433783
0.0432163
0.043034
0.0428302
0.042603
0.0423521
0.042076
0.041775
0.041446
0.0410918
0.0407112
0.040307
0.0398756
0.0394199
0.0389375
0.0384328
0.0379052
0.0373605
0.0367959
0.0362082
0.0356078
0.0350021
0.0344062
0.0337848
0.0331504
0.0325148
0.0319182
0.0313836
0.0304239
0.042133
0.0421333
0.0421412
0.0422236
0.0424833
0.0427809
0.0429072
0.0429303
0.0428757
0.0427172
0.0425647
0.0424721
0.0424349
0.0424316
0.042447
0.042463
0.0424614
0.0424448
0.042424
0.0424078
0.0423958
0.0423861
0.0423797
0.0423764
0.0423759
0.042379
0.0423845
0.0423929
0.0424043
0.0424181
0.0424333
0.0424494
0.0424665
0.0424844
0.0425023
0.0425193
0.0425354
0.0425511
0.0425674
0.042585
0.0426048
0.0426272
0.0426523
0.0426799
0.0427102
0.0427437
0.0427805
0.0428204
0.0428626
0.0429068
0.0429526
0.0429998
0.0430486
0.0430989
0.0431509
0.0432046
0.04326
0.043317
0.0433752
0.0434346
0.0434948
0.0435557
0.043617
0.0436785
0.0437402
0.0438018
0.0438631
0.0439238
0.0439837
0.0440425
0.0441001
0.0441561
0.0442102
0.044262
0.0443111
0.044357
0.0443995
0.0444381
0.0444722
0.0445014
0.0445246
0.0445419
0.0445524
0.044556
0.0445505
0.0445359
0.0445112
0.0444746
0.0444265
0.0443654
0.0442904
0.0442004
0.0440941
0.0439698
0.0438265
0.0436628
0.043477
0.0432694
0.0430391
0.0427853
0.042506
0.0422034
0.0418741
0.0415182
0.0411348
0.0407288
0.0402964
0.0398357
0.0393447
0.0388345
0.038303
0.0377487
0.037164
0.0365593
0.035946
0.03532
0.0346851
0.0339622
0.0332569
0.032598
0.0314522
0.042133
0.0421331
0.0421362
0.042184
0.0423983
0.0427219
0.0428976
0.0429535
0.0429243
0.0427804
0.042616
0.0425148
0.0424716
0.0424668
0.0424854
0.0425102
0.0425133
0.0425013
0.042483
0.0424688
0.0424593
0.0424527
0.042449
0.0424481
0.04245
0.0424551
0.0424623
0.0424724
0.0424853
0.0425003
0.0425166
0.0425336
0.0425515
0.0425702
0.0425892
0.0426075
0.042625
0.0426422
0.04266
0.0426791
0.0427005
0.0427246
0.0427516
0.0427813
0.0428137
0.0428493
0.0428884
0.0429307
0.0429757
0.0430228
0.0430716
0.043122
0.043174
0.0432276
0.0432831
0.0433404
0.0433996
0.0434606
0.0435232
0.0435872
0.0436523
0.0437184
0.0437852
0.0438526
0.0439204
0.0439885
0.0440566
0.0441247
0.0441924
0.0442596
0.044326
0.0443914
0.0444555
0.044518
0.0445786
0.0446367
0.0446922
0.0447446
0.0447935
0.0448384
0.0448788
0.0449141
0.0449436
0.0449667
0.0449828
0.0449912
0.0449926
0.0449821
0.0449631
0.0449321
0.0448885
0.0448317
0.04476
0.0446723
0.0445682
0.0444461
0.0443046
0.0441433
0.0439613
0.0437576
0.0435303
0.0432794
0.0430009
0.0426959
0.0423647
0.0420101
0.0416282
0.0412174
0.0407769
0.040314
0.0398285
0.0393231
0.0387887
0.0382311
0.0376531
0.0370683
0.0364691
0.0358645
0.0351996
0.0345775
0.033485
0.042133
0.0421331
0.0421342
0.04216
0.0423245
0.0426522
0.0428846
0.04297
0.042954
0.0428363
0.0426668
0.0425579
0.0425087
0.0425017
0.0425211
0.0425548
0.0425627
0.0425543
0.0425391
0.0425276
0.0425215
0.0425185
0.0425177
0.042519
0.0425229
0.0425295
0.0425381
0.0425496
0.0425637
0.0425798
0.042597
0.0426147
0.042633
0.0426524
0.0426722
0.0426917
0.0427105
0.042729
0.0427482
0.0427688
0.0427917
0.0428175
0.0428463
0.0428779
0.0429124
0.0429501
0.0429913
0.0430359
0.0430835
0.0431333
0.043185
0.0432384
0.0432934
0.0433503
0.043409
0.0434697
0.0435325
0.0435973
0.0436639
0.0437321
0.0438017
0.0438726
0.0439445
0.0440172
0.0440907
0.0441647
0.0442393
0.0443141
0.0443889
0.0444636
0.044538
0.0446119
0.044685
0.0447571
0.0448279
0.044897
0.0449641
0.0450289
0.045091
0.04515
0.0452055
0.0452569
0.0453039
0.0453457
0.0453818
0.0454111
0.0454336
0.0454482
0.0454546
0.045452
0.045437
0.0454117
0.0453729
0.0453207
0.0452543
0.0451721
0.0450726
0.0449547
0.0448169
0.0446578
0.0444758
0.0442699
0.0440376
0.0437807
0.0434966
0.0431859
0.0428471
0.0424822
0.0420894
0.0416686
0.0412207
0.0407499
0.0402518
0.039731
0.0391802
0.0386144
0.0380251
0.0374228
0.0367927
0.0361512
0.0351229
0.042133
0.042133
0.0421335
0.0421469
0.0422666
0.0425799
0.0428646
0.0429779
0.0429738
0.042885
0.0427168
0.0426005
0.0425443
0.0425339
0.0425533
0.0425956
0.0426097
0.0426048
0.0425936
0.0425856
0.0425829
0.0425829
0.0425843
0.0425871
0.0425923
0.0426001
0.0426101
0.0426229
0.0426383
0.0426555
0.0426735
0.0426917
0.0427105
0.0427302
0.0427508
0.0427713
0.0427912
0.042811
0.0428316
0.0428537
0.0428782
0.0429055
0.042936
0.0429695
0.0430059
0.0430456
0.0430888
0.0431357
0.0431857
0.0432381
0.0432925
0.0433486
0.0434066
0.0434664
0.0435281
0.0435919
0.043658
0.0437261
0.0437964
0.0438684
0.0439422
0.0440174
0.0440938
0.0441714
0.0442499
0.0443293
0.0444095
0.0444903
0.0445715
0.0446529
0.0447345
0.0448159
0.0448972
0.0449779
0.0450579
0.0451368
0.0452144
0.0452904
0.0453644
0.0454362
0.0455053
0.0455713
0.0456337
0.0456922
0.0457461
0.0457949
0.045838
0.0458745
0.0459037
0.045925
0.0459377
0.0459419
0.0459342
0.0459154
0.045884
0.0458375
0.0457764
0.045698
0.0456015
0.0454856
0.0453494
0.0451916
0.0450106
0.0448068
0.0445763
0.0443198
0.0440365
0.0437285
0.0433922
0.0430257
0.04263
0.0422072
0.0417596
0.0412874
0.0407821
0.0402519
0.039684
0.0391076
0.0384836
0.0378582
0.0369108
0.042133
0.042133
0.0421332
0.0421402
0.0422252
0.0425126
0.0428353
0.0429804
0.0429899
0.0429265
0.0427637
0.0426393
0.0425761
0.0425625
0.0425828
0.0426339
0.0426557
0.0426544
0.0426476
0.0426424
0.0426419
0.0426439
0.0426467
0.0426505
0.0426567
0.0426657
0.0426773
0.0426918
0.0427087
0.042727
0.0427457
0.0427643
0.0427832
0.0428032
0.0428244
0.0428458
0.0428669
0.042888
0.0429099
0.0429334
0.0429593
0.0429882
0.0430203
0.0430557
0.043094
0.0431355
0.0431808
0.0432297
0.043282
0.0433368
0.0433938
0.0434526
0.0435132
0.0435757
0.0436403
0.043707
0.043776
0.0438473
0.0439208
0.0439964
0.0440739
0.044153
0.0442336
0.0443155
0.0443987
0.0444829
0.0445682
0.0446544
0.0447413
0.0448288
0.0449168
0.045005
0.0450935
0.0451819
0.04527
0.0453577
0.0454445
0.0455303
0.0456148
0.0456978
0.0457789
0.0458577
0.0459339
0.0460071
0.0460767
0.0461424
0.0462035
0.0462596
0.0463099
0.0463539
0.0463905
0.0464193
0.0464392
0.0464496
0.0464511
0.0464372
0.0464129
0.0463731
0.0463177
0.0462463
0.046157
0.0460486
0.0459195
0.0457685
0.0455925
0.045392
0.0451645
0.0449113
0.044629
0.0443184
0.0439783
0.043609
0.0432146
0.0427925
0.0423439
0.0418666
0.0413554
0.0408218
0.0402394
0.0396345
0.0387649
0.042133
0.042133
0.0421331
0.0421369
0.0421975
0.0424556
0.0428024
0.042979
0.0430048
0.0429603
0.0428044
0.0426715
0.0426037
0.0425885
0.0426117
0.0426714
0.0427014
0.0427037
0.0426999
0.0426961
0.0426967
0.0427
0.0427038
0.0427084
0.0427161
0.042727
0.0427407
0.0427571
0.0427755
0.0427947
0.0428138
0.0428324
0.0428513
0.0428715
0.0428932
0.0429154
0.0429375
0.0429597
0.0429828
0.0430077
0.043035
0.0430653
0.0430991
0.0431362
0.0431763
0.0432198
0.0432669
0.0433179
0.0433723
0.0434295
0.0434889
0.0435502
0.0436133
0.0436784
0.0437455
0.0438148
0.0438865
0.0439607
0.0440372
0.044116
0.0441968
0.0442794
0.0443637
0.0444495
0.0445368
0.0446253
0.0447151
0.0448061
0.044898
0.0449908
0.0450844
0.0451786
0.0452733
0.0453684
0.0454637
0.0455589
0.0456538
0.0457483
0.045842
0.0459348
0.0460264
0.0461164
0.0462046
0.0462907
0.0463742
0.0464547
0.0465318
0.046605
0.0466737
0.0467375
0.0467958
0.0468477
0.0468925
0.046929
0.0469573
0.0469756
0.0469841
0.0469818
0.0469638
0.0469337
0.0468865
0.0468221
0.0467388
0.0466347
0.0465081
0.0463581
0.0461819
0.0459793
0.0457478
0.0454894
0.0451999
0.0448804
0.0445312
0.0441512
0.0437445
0.0433029
0.0428308
0.042323
0.0417812
0.0411838
0.0404016
0.042133
0.042133
0.0421331
0.0421353
0.0421801
0.0424113
0.0427722
0.0429769
0.0430184
0.0429864
0.0428364
0.042697
0.0426282
0.0426133
0.042641
0.0427092
0.0427462
0.0427511
0.0427487
0.0427456
0.0427465
0.0427515
0.0427563
0.0427624
0.0427723
0.0427855
0.0428015
0.0428198
0.0428394
0.0428591
0.042878
0.0428964
0.042915
0.0429353
0.0429573
0.0429803
0.0430032
0.0430264
0.0430506
0.0430767
0.0431053
0.043137
0.0431723
0.0432111
0.043253
0.0432982
0.0433473
0.0434002
0.0434567
0.0435161
0.0435778
0.0436414
0.0437069
0.0437743
0.0438437
0.0439155
0.0439897
0.0440664
0.0441457
0.0442273
0.0443111
0.0443968
0.0444844
0.0445737
0.0446646
0.0447569
0.0448507
0.0449459
0.0450423
0.0451398
0.0452383
0.0453377
0.0454379
0.0455389
0.0456404
0.0457422
0.0458441
0.045946
0.0460477
0.046149
0.0462496
0.0463493
0.0464479
0.046545
0.0466404
0.0467337
0.0468245
0.0469125
0.0469972
0.0470781
0.0471547
0.0472265
0.0472928
0.0473531
0.0474066
0.0474523
0.047489
0.0475166
0.0475333
0.0475395
0.0475312
0.0475079
0.0474693
0.0474122
0.0473365
0.0472401
0.0471208
0.0469773
0.0468072
0.0466113
0.0463841
0.0461284
0.0458403
0.0455219
0.0451734
0.0447882
0.0443707
0.0439088
0.0434094
0.0428412
0.0421029
0.042133
0.042133
0.0421331
0.0421347
0.04217
0.0423807
0.0427483
0.0429764
0.0430311
0.0430055
0.0428592
0.0427168
0.0426502
0.0426376
0.0426711
0.0427475
0.0427893
0.0427953
0.0427931
0.0427907
0.0427924
0.0427995
0.0428059
0.0428141
0.0428265
0.0428423
0.0428605
0.0428803
0.0429006
0.0429201
0.0429385
0.0429562
0.0429745
0.0429947
0.043017
0.0430405
0.0430641
0.0430881
0.0431133
0.0431404
0.0431702
0.0432033
0.0432401
0.0432805
0.0433241
0.0433711
0.043422
0.0434769
0.0435354
0.0435969
0.0436607
0.0437265
0.0437941
0.0438636
0.0439353
0.0440092
0.0440857
0.0441648
0.0442465
0.0443306
0.0444171
0.0445057
0.0445962
0.0446886
0.0447826
0.0448783
0.0449756
0.0450744
0.0451747
0.0452762
0.045379
0.0454829
0.0455879
0.0456939
0.0458007
0.0459081
0.0460161
0.0461243
0.0462328
0.0463413
0.0464496
0.0465576
0.0466649
0.0467715
0.0468769
0.0469811
0.0470836
0.0471841
0.0472823
0.0473778
0.0474702
0.0475591
0.0476438
0.047724
0.0477991
0.0478682
0.0479307
0.0479858
0.0480323
0.0480695
0.0480965
0.0481121
0.0481168
0.0481043
0.0480783
0.0480339
0.0479694
0.0478842
0.0477746
0.04764
0.0474751
0.0472819
0.0470535
0.0467937
0.0464964
0.0461602
0.0457833
0.0453568
0.0448922
0.044358
0.0436675
0.042133
0.042133
0.0421331
0.0421344
0.0421655
0.0423636
0.0427348
0.0429782
0.0430421
0.0430182
0.042874
0.0427325
0.04267
0.0426612
0.0427017
0.0427858
0.04283
0.0428363
0.0428337
0.042832
0.0428359
0.042845
0.0428536
0.0428643
0.0428794
0.0428975
0.0429175
0.0429382
0.0429582
0.042977
0.0429944
0.0430113
0.0430292
0.0430494
0.0430721
0.043096
0.0431202
0.0431448
0.0431708
0.043199