/*--------------------------------*- C++ -*----------------------------------*\
| =========                 |                                                 |
| \\      /  F ield         | OpenFOAM: The Open Source CFD Toolbox           |
|  \\    /   O peration     | Version:  2412                                  |
|   \\  /    A nd           | Website:  www.openfoam.com                      |
|    \\/     M anipulation  |                                                 |
\*---------------------------------------------------------------------------*/
FoamFile
{
    version     2.0;
    format      ascii;
    arch        "LSB;label=32;scalar=64";
    class       volVectorField;
    location    "0.027";
    object      U;
}
// * * * * * * * * * * * * * * * * * * * * * * * * * * * * * * * * * * * * * //

dimensions      [0 1 -1 0 0 0 0];

internalField   nonuniform List<vector> 
78650
(
(210 -1.47036e-12 0)
(210 2.93171e-12 0)
(210 -1.22638e-11 0)
(210 -5.05997e-12 0)
(210 5.0493e-12 0)
(210 -8.53976e-12 0)
(210 -1.56984e-12 0)
(210 1.44582e-12 0)
(210 2.44858e-13 0)
(210 2.54632e-12 0)
(210 2.38924e-10 0)
(210 2.59862e-08 0)
(210 2.74567e-06 0)
(209.999 0.000284922 0)
(209.959 0.0111906 0)
(209.591 0.141923 0)
(208.43 0.639719 0)
(206.994 1.34821 0)
(206.105 1.82147 0)
(206.035 1.94034 0)
(206.216 1.93718 0)
(207.157 1.68414 0)
(208.443 1.22676 0)
(209.603 0.961993 0)
(210.417 0.809469 0)
(211.017 0.871064 0)
(211.435 1.05208 0)
(211.736 1.3007 0)
(212.052 1.56654 0)
(212.445 1.83623 0)
(212.89 2.11972 0)
(213.328 2.43762 0)
(213.739 2.79677 0)
(214.131 3.19899 0)
(214.508 3.64797 0)
(214.862 4.14387 0)
(215.187 4.67765 0)
(215.487 5.23651 0)
(215.76 5.81674 0)
(216.01 6.42181 0)
(216.237 7.05923 0)
(216.445 7.73054 0)
(216.624 8.43713 0)
(216.789 9.17361 0)
(216.931 9.93663 0)
(217.037 10.7255 0)
(217.114 11.5396 0)
(217.174 12.3782 0)
(217.223 13.2423 0)
(217.255 14.1364 0)
(217.273 15.0623 0)
(217.282 16.0214 0)
(217.282 17.0156 0)
(217.27 18.0458 0)
(217.246 19.1127 0)
(217.207 20.2158 0)
(217.157 21.3533 0)
(217.097 22.5233 0)
(217.031 23.7242 0)
(216.96 24.9571 0)
(216.882 26.2233 0)
(216.802 27.5238 0)
(216.719 28.8603 0)
(216.639 30.231 0)
(216.567 31.6384 0)
(216.504 33.0834 0)
(216.453 34.566 0)
(216.422 36.0899 0)
(216.407 37.6558 0)
(216.421 39.265 0)
(216.466 40.919 0)
(216.546 42.6185 0)
(216.674 44.3659 0)
(216.848 46.1616 0)
(217.086 48.0074 0)
(217.383 49.9037 0)
(217.764 51.8519 0)
(218.221 53.8514 0)
(218.786 55.9021 0)
(219.453 58.0028 0)
(220.244 60.1523 0)
(221.171 62.3488 0)
(222.249 64.5883 0)
(223.499 66.8642 0)
(224.929 69.1732 0)
(226.574 71.5085 0)
(228.417 73.8705 0)
(230.536 76.2308 0)
(232.865 78.5976 0)
(235.568 80.9201 0)
(238.473 83.2609 0)
(241.854 85.4717 0)
(245.393 87.6907 0)
(249.49 89.6133 0)
(253.724 91.568 0)
(258.47 93.2229 0)
(263.468 94.7711 0)
(268.962 96.0281 0)
(275.404 97.1125 0)
(282.002 97.639 0)
(288.337 97.993 0)
(294.226 98.1591 0)
(300.598 98.0005 0)
(308.514 97.2961 0)
(316.569 96.0514 0)
(324.091 94.4521 0)
(330.989 92.5728 0)
(337.223 91.0131 0)
(343.549 89.3233 0)
(349.599 87.3567 0)
(355.342 85.3372 0)
(361.649 82.77 0)
(366.811 80.682 0)
(372.321 78.0731 0)
(376.026 75.6978 0)
(378.02 73.8728 0)
(379.661 71.8785 0)
(381.984 70.6401 0)
(386.83 69.3017 0)
(394.774 68.0358 0)
(397.683 72.1881 0)
(210 1.28487e-12 0)
(210 7.73796e-13 0)
(210 -1.1145e-11 0)
(210 -7.29981e-12 0)
(210 1.1017e-12 0)
(210 -1.72196e-12 0)
(210 8.4657e-12 0)
(210 2.00304e-12 0)
(210 -1.10041e-11 0)
(210 -8.59055e-12 0)
(210 6.63074e-11 0)
(210 7.45882e-09 0)
(210 8.92947e-07 0)
(209.999 0.000109956 0)
(209.977 0.0056175 0)
(209.719 0.0899881 0)
(208.707 0.495132 0)
(207.2 1.20147 0)
(206.125 1.72509 0)
(205.969 1.88739 0)
(206.022 1.9541 0)
(206.829 1.78929 0)
(208.103 1.34633 0)
(209.298 1.05008 0)
(210.138 0.866315 0)
(210.763 0.9009 0)
(211.185 1.06245 0)
(211.467 1.30109 0)
(211.756 1.56749 0)
(212.122 1.84353 0)
(212.548 2.1313 0)
(212.975 2.44893 0)
(213.376 2.80554 0)
(213.756 3.2041 0)
(214.123 3.64684 0)
(214.465 4.1343 0)
(214.778 4.65826 0)
(215.062 5.20695 0)
(215.32 5.77559 0)
(215.555 6.36781 0)
(215.767 6.99148 0)
(215.958 7.64914 0)
(216.122 8.3427 0)
(216.273 9.06625 0)
(216.399 9.81696 0)
(216.488 10.5939 0)
(216.55 11.3957 0)
(216.595 12.2214 0)
(216.623 13.0727 0)
(216.631 13.9537 0)
(216.624 14.8646 0)
(216.607 15.8075 0)
(216.579 16.785 0)
(216.539 17.7973 0)
(216.486 18.8454 0)
(216.418 19.9296 0)
(216.337 21.0483 0)
(216.247 22.1988 0)
(216.149 23.3804 0)
(216.043 24.5936 0)
(215.931 25.8393 0)
(215.813 27.1187 0)
(215.689 28.435 0)
(215.566 29.7838 0)
(215.447 31.1683 0)
(215.332 32.5916 0)
(215.227 34.0514 0)
(215.136 35.5524 0)
(215.057 37.0954 0)
(215.001 38.6815 0)
(214.969 40.3127 0)
(214.966 41.9895 0)
(215.003 43.715 0)
(215.078 45.4897 0)
(215.209 47.316 0)
(215.388 49.1944 0)
(215.643 51.1275 0)
(215.961 53.1148 0)
(216.373 55.1579 0)
(216.876 57.2556 0)
(217.489 59.4081 0)
(218.224 61.6146 0)
(219.096 63.8737 0)
(220.123 66.1831 0)
(221.312 68.5411 0)
(222.7 70.9401 0)
(224.275 73.3732 0)
(226.111 75.8182 0)
(228.15 78.2846 0)
(230.536 80.7352 0)
(233.111 83.2029 0)
(236.121 85.577 0)
(239.278 87.9598 0)
(242.975 90.1597 0)
(246.78 92.4235 0)
(251.187 94.3982 0)
(255.816 96.3681 0)
(260.983 97.9867 0)
(266.385 99.3909 0)
(272.029 100.563 0)
(277.911 101.493 0)
(284.795 102.031 0)
(292.336 102.096 0)
(299.607 101.832 0)
(306.015 101.504 0)
(312.401 100.933 0)
(320.071 99.6628 0)
(327.363 98.135 0)
(335.37 95.9949 0)
(342.063 93.895 0)
(348.374 91.7694 0)
(354.728 89.4776 0)
(360.189 87.5988 0)
(365.884 85.3359 0)
(370.608 83.0351 0)
(374.003 80.7442 0)
(376.457 78.1988 0)
(378.636 76.4542 0)
(383.161 74.8251 0)
(391.461 73.4365 0)
(394.913 77.7846 0)
(210 1.08818e-12 0)
(210 -3.4642e-12 0)
(210 -1.04565e-11 0)
(210 -8.12633e-12 0)
(210 1.5021e-11 0)
(210 1.13751e-11 0)
(210 1.19159e-11 0)
(210 -9.28562e-12 0)
(210 -5.48862e-12 0)
(210 9.36123e-12 0)
(210 4.13932e-11 0)
(210 3.19751e-09 0)
(210 3.33487e-07 0)
(210 3.98754e-05 0)
(209.988 0.00259243 0)
(209.818 0.0534439 0)
(208.985 0.366877 0)
(207.467 1.04059 0)
(206.194 1.61439 0)
(205.905 1.83636 0)
(205.861 1.96458 0)
(206.506 1.87374 0)
(207.73 1.44713 0)
(208.954 1.11492 0)
(209.835 0.898685 0)
(210.495 0.904336 0)
(210.932 1.04545 0)
(211.2 1.27374 0)
(211.463 1.54098 0)
(211.8 1.8252 0)
(212.206 2.12013 0)
(212.62 2.43974 0)
(213.011 2.79506 0)
(213.379 3.19083 0)
(213.734 3.62814 0)
(214.065 4.10781 0)
(214.364 4.62247 0)
(214.632 5.16159 0)
(214.875 5.71938 0)
(215.093 6.29976 0)
(215.29 6.91065 0)
(215.465 7.55567 0)
(215.613 8.23709 0)
(215.75 8.94842 0)
(215.858 9.68789 0)
(215.929 10.4543 0)
(215.977 11.2456 0)
(216.008 12.06 0)
(216.018 12.8994 0)
(216.003 13.77 0)
(215.973 14.6688 0)
(215.931 15.5985 0)
(215.876 16.5606 0)
(215.808 17.5566 0)
(215.726 18.5878 0)
(215.629 19.6544 0)
(215.517 20.7554 0)
(215.393 21.8888 0)
(215.26 23.0531 0)
(215.119 24.2485 0)
(214.97 25.4764 0)
(214.812 26.7385 0)
(214.648 28.0342 0)
(214.481 29.3648 0)
(214.314 30.7303 0)
(214.145 32.1364 0)
(213.986 33.5749 0)
(213.835 35.0541 0)
(213.693 36.576 0)
(213.57 38.1403 0)
(213.463 39.7504 0)
(213.381 41.4048 0)
(213.332 43.1081 0)
(213.314 44.86 0)
(213.343 46.6638 0)
(213.414 48.5196 0)
(213.549 50.4308 0)
(213.739 52.3966 0)
(214.013 54.4196 0)
(214.363 56.4984 0)
(214.813 58.634 0)
(215.37 60.8267 0)
(216.046 63.0762 0)
(216.86 65.3801 0)
(217.819 67.7348 0)
(218.957 70.1343 0)
(220.265 72.5768 0)
(221.805 75.0555 0)
(223.524 77.5794 0)
(225.551 80.1204 0)
(227.755 82.6905 0)
(230.369 85.2125 0)
(233.148 87.7515 0)
(236.449 90.1789 0)
(239.898 92.6616 0)
(243.957 94.9109 0)
(248.129 97.2025 0)
(252.838 99.1819 0)
(257.855 101.098 0)
(263.484 102.67 0)
(269.824 104.025 0)
(276.093 104.925 0)
(282.527 105.649 0)
(288.583 106.16 0)
(295.822 106.174 0)
(302.742 105.797 0)
(310.78 104.92 0)
(317.641 103.966 0)
(324.941 102.517 0)
(331.826 100.911 0)
(338.588 99.1773 0)
(345.644 97.0358 0)
(351.793 95.0444 0)
(358.059 92.694 0)
(363.198 90.4952 0)
(367.23 88.2462 0)
(370.276 85.62 0)
(373.002 83.9463 0)
(378.189 82.5255 0)
(387.223 80.9882 0)
(390.806 85.5157 0)
(210 -3.40364e-13 0)
(210 2.19559e-12 0)
(210 -1.08344e-12 0)
(210 1.09703e-11 0)
(210 2.58493e-11 0)
(210 1.16346e-11 0)
(210 -2.75789e-12 0)
(210 -5.66246e-12 0)
(210 1.6632e-12 0)
(210 1.61691e-11 0)
(210 8.91154e-12 0)
(210 6.08474e-10 0)
(210 6.84166e-08 0)
(210 1.07942e-05 0)
(209.994 0.00104067 0)
(209.89 0.028785 0)
(209.242 0.253553 0)
(207.776 0.864246 0)
(206.324 1.4909 0)
(205.866 1.78496 0)
(205.725 1.95581 0)
(206.195 1.92953 0)
(207.345 1.54972 0)
(208.598 1.20011 0)
(209.522 0.950053 0)
(210.217 0.926145 0)
(210.67 1.05058 0)
(210.927 1.27185 0)
(211.168 1.54184 0)
(211.479 1.8341 0)
(211.861 2.13467 0)
(212.259 2.45321 0)
(212.638 2.80276 0)
(212.992 3.19124 0)
(213.334 3.61925 0)
(213.652 4.08762 0)
(213.937 4.58986 0)
(214.188 5.11697 0)
(214.414 5.66213 0)
(214.615 6.22954 0)
(214.798 6.8267 0)
(214.956 7.45842 0)
(215.089 8.12666 0)
(215.212 8.82481 0)
(215.299 9.55229 0)
(215.354 10.3069 0)
(215.39 11.0851 0)
(215.41 11.8836 0)
(215.397 12.7159 0)
(215.363 13.5731 0)
(215.314 14.4577 0)
(215.25 15.3721 0)
(215.172 16.3181 0)
(215.078 17.2969 0)
(214.969 18.3095 0)
(214.844 19.3567 0)
(214.702 20.4378 0)
(214.548 21.5511 0)
(214.383 22.6947 0)
(214.208 23.8689 0)
(214.024 25.0747 0)
(213.83 26.3136 0)
(213.627 27.5868 0)
(213.417 28.8944 0)
(213.204 30.2377 0)
(212.992 31.6151 0)
(212.782 33.0296 0)
(212.574 34.4843 0)
(212.371 35.9813 0)
(212.184 37.5168 0)
(212.006 39.1002 0)
(211.85 40.727 0)
(211.717 42.4037 0)
(211.61 44.1289 0)
(211.541 45.9064 0)
(211.505 47.7366 0)
(211.525 49.6233 0)
(211.587 51.5665 0)
(211.723 53.5697 0)
(211.922 55.6321 0)
(212.208 57.7559 0)
(212.586 59.9418 0)
(213.071 62.1902 0)
(213.676 64.5005 0)
(214.412 66.8717 0)
(215.309 69.3024 0)
(216.36 71.7926 0)
(217.62 74.3359 0)
(219.048 76.9307 0)
(220.762 79.5502 0)
(222.649 82.1968 0)
(224.919 84.8224 0)
(227.351 87.4817 0)
(230.264 90.0917 0)
(233.311 92.7585 0)
(236.926 95.275 0)
(240.668 97.8334 0)
(245.054 100.089 0)
(249.636 102.321 0)
(254.73 104.243 0)
(260.099 106.009 0)
(265.869 107.528 0)
(272.205 108.842 0)
(279.144 109.706 0)
(286.801 110.219 0)
(294.152 110.255 0)
(301.239 110.177 0)
(309.142 109.44 0)
(316.216 108.635 0)
(324.125 107.179 0)
(331.308 105.611 0)
(338.637 103.583 0)
(345.592 101.419 0)
(352.864 98.7987 0)
(358.717 96.5471 0)
(363.763 93.9539 0)
(366.819 91.4169 0)
(368.893 89.5858 0)
(373.376 88.6674 0)
(383.408 87.2999 0)
(387.084 93.2607 0)
(210 9.88709e-12 0)
(210 1.11293e-11 0)
(210 6.263e-12 0)
(210 2.04509e-11 0)
(210 3.16519e-12 0)
(210 -1.21059e-11 0)
(210 -4.47753e-12 0)
(210 7.60773e-13 0)
(210 9.36803e-12 0)
(210 5.90539e-12 0)
(210 5.2767e-12 0)
(210 1.21682e-10 0)
(210 1.04419e-08 0)
(210 2.16236e-06 0)
(209.997 0.000362765 0)
(209.939 0.0139728 0)
(209.469 0.162607 0)
(208.134 0.684789 0)
(206.542 1.34907 0)
(205.836 1.73714 0)
(205.602 1.91108 0)
(205.909 1.95317 0)
(206.95 1.64826 0)
(208.207 1.27815 0)
(209.178 0.981489 0)
(209.918 0.919977 0)
(210.401 1.02626 0)
(210.656 1.24235 0)
(210.877 1.51867 0)
(211.159 1.8234 0)
(211.512 2.13352 0)
(211.889 2.45259 0)
(212.254 2.79584 0)
(212.593 3.17585 0)
(212.92 3.59368 0)
(213.224 4.04992 0)
(213.496 4.539 0)
(213.731 5.05357 0)
(213.94 5.58596 0)
(214.123 6.14056 0)
(214.29 6.72416 0)
(214.432 7.34294 0)
(214.552 7.99813 0)
(214.659 8.68374 0)
(214.725 9.40013 0)
(214.763 10.1436 0)
(214.791 10.9063 0)
(214.789 11.6989 0)
(214.758 12.5185 0)
(214.707 13.3639 0)
(214.638 14.2363 0)
(214.552 15.1376 0)
(214.45 16.0691 0)
(214.332 17.0318 0)
(214.197 18.0271 0)
(214.044 19.0559 0)
(213.873 20.118 0)
(213.686 21.2121 0)
(213.488 22.3366 0)
(213.278 23.4911 0)
(213.057 24.6767 0)
(212.824 25.8949 0)
(212.58 27.1466 0)
(212.328 28.4323 0)
(212.069 29.7527 0)
(211.806 31.109 0)
(211.542 32.5021 0)
(211.28 33.9332 0)
(211.022 35.4023 0)
(210.771 36.9133 0)
(210.52 38.4748 0)
(210.291 40.0731 0)
(210.078 41.7221 0)
(209.885 43.4196 0)
(209.723 45.1695 0)
(209.588 46.9719 0)
(209.499 48.8301 0)
(209.444 50.7446 0)
(209.454 52.7191 0)
(209.515 54.753 0)
(209.652 56.8488 0)
(209.869 59.0076 0)
(210.178 61.2305 0)
(210.591 63.5185 0)
(211.119 65.8718 0)
(211.785 68.2894 0)
(212.588 70.7692 0)
(213.576 73.3076 0)
(214.715 75.9039 0)
(216.107 78.5477 0)
(217.652 81.2458 0)
(219.543 83.9774 0)
(221.585 86.7748 0)
(224.078 89.5674 0)
(226.72 92.3983 0)
(229.906 95.112 0)
(233.224 97.8512 0)
(237.166 100.391 0)
(241.242 102.992 0)
(245.925 105.319 0)
(250.936 107.594 0)
(256.605 109.544 0)
(262.766 111.267 0)
(269.288 112.609 0)
(275.464 113.652 0)
(282.595 114.406 0)
(289.325 114.841 0)
(297.39 114.879 0)
(304.924 114.564 0)
(312.337 113.865 0)
(320.309 112.685 0)
(327.471 111.325 0)
(334.843 109.805 0)
(342.687 107.882 0)
(349.096 105.95 0)
(355.548 103.107 0)
(359.992 99.903 0)
(363.559 97.001 0)
(369.095 94.7909 0)
(379.453 93.3027 0)
(383.415 99.0938 0)
(210 9.65399e-12 0)
(210 -2.97259e-12 0)
(210 3.1328e-12 0)
(210 1.20492e-11 0)
(210 -9.02072e-12 0)
(210 -5.06586e-12 0)
(210 -6.82322e-12 0)
(210 -2.34987e-12 0)
(210 -2.72585e-13 0)
(210 -5.5243e-12 0)
(210 3.31421e-12 0)
(210 -2.06642e-11 0)
(210 -2.62053e-09 0)
(210 9.8868e-08 0)
(209.999 0.000101135 0)
(209.969 0.00591204 0)
(209.656 0.0943772 0)
(208.507 0.507871 0)
(206.824 1.1781 0)
(205.852 1.65614 0)
(205.484 1.84297 0)
(205.673 1.96257 0)
(206.557 1.74384 0)
(207.788 1.35942 0)
(208.811 1.02191 0)
(209.604 0.943972 0)
(210.122 1.03874 0)
(210.383 1.24704 0)
(210.588 1.52197 0)
(210.841 1.8297 0)
(211.159 2.14297 0)
(211.509 2.45901 0)
(211.855 2.7932 0)
(212.176 3.16239 0)
(212.487 3.56848 0)
(212.778 4.01122 0)
(213.035 4.486 0)
(213.253 4.98719 0)
(213.444 5.50671 0)
(213.609 6.04889 0)
(213.761 6.61955 0)
(213.885 7.22599 0)
(213.994 7.86794 0)
(214.082 8.54142 0)
(214.127 9.24649 0)
(214.155 9.97551 0)
(214.17 10.724 0)
(214.148 11.5058 0)
(214.101 12.3116 0)
(214.032 13.1432 0)
(213.944 14.0008 0)
(213.839 14.886 0)
(213.717 15.8004 0)
(213.576 16.7452 0)
(213.418 17.7215 0)
(213.239 18.7302 0)
(213.041 19.7715 0)
(212.825 20.8442 0)
(212.595 21.9468 0)
(212.352 23.0785 0)
(212.097 24.2404 0)
(211.828 25.4338 0)
(211.547 26.6603 0)
(211.254 27.9203 0)
(210.953 29.2145 0)
(210.645 30.5432 0)
(210.334 31.9076 0)
(210.019 33.3095 0)
(209.704 34.7514 0)
(209.39 36.2355 0)
(209.083 37.7597 0)
(208.785 39.3285 0)
(208.492 40.9488 0)
(208.217 42.6143 0)
(207.965 44.3304 0)
(207.732 46.1006 0)
(207.539 47.927 0)
(207.369 49.8112 0)
(207.254 51.7564 0)
(207.178 53.7628 0)
(207.167 55.8335 0)
(207.221 57.9707 0)
(207.354 60.1763 0)
(207.576 62.4521 0)
(207.896 64.7987 0)
(208.338 67.2164 0)
(208.903 69.705 0)
(209.632 72.2654 0)
(210.496 74.8968 0)
(211.586 77.5935 0)
(212.819 80.3545 0)
(214.37 83.1616 0)
(216.064 86.022 0)
(218.166 88.8845 0)
(220.396 91.7846 0)
(223.126 94.6419 0)
(225.986 97.5534 0)
(229.449 100.363 0)
(233.072 103.228 0)
(237.363 105.863 0)
(241.861 108.474 0)
(246.884 110.779 0)
(252.257 113.006 0)
(258.137 114.974 0)
(264.673 116.684 0)
(271.677 117.991 0)
(279.561 118.951 0)
(286.55 119.431 0)
(295.178 119.549 0)
(302.394 119.336 0)
(311.23 118.404 0)
(318.489 117.505 0)
(326.095 116.373 0)
(333.438 115.148 0)
(339.92 113.796 0)
(346.49 111.522 0)
(351.099 108.888 0)
(354.74 106.455 0)
(360.38 104.669 0)
(371.455 102.904 0)
(375.265 109.162 0)
(210 1.18895e-12 0)
(210 -2.01351e-12 0)
(210 1.23762e-11 0)
(210 5.82329e-12 0)
(210 -1.5457e-12 0)
(210 -1.39637e-12 0)
(210 -4.8318e-12 0)
(210 -6.96301e-13 0)
(210 -1.04987e-11 0)
(210 -4.30663e-12 0)
(210 2.92923e-12 0)
(210 -1.33037e-11 0)
(210 -2.03909e-09 0)
(210 -1.13257e-07 0)
(210 1.96258e-05 0)
(209.986 0.00212643 0)
(209.797 0.0487969 0)
(208.88 0.349024 0)
(207.191 0.986754 0)
(205.945 1.54464 0)
(205.391 1.78146 0)
(205.482 1.95719 0)
(206.159 1.80024 0)
(207.33 1.41789 0)
(208.413 1.05006 0)
(209.274 0.968319 0)
(209.837 1.04657 0)
(210.11 1.24141 0)
(210.3 1.51 0)
(210.521 1.8167 0)
(210.799 2.13142 0)
(211.116 2.44442 0)
(211.439 2.76972 0)
(211.743 3.12813 0)
(212.037 3.523 0)
(212.314 3.9524 0)
(212.558 4.41239 0)
(212.76 4.89907 0)
(212.934 5.40471 0)
(213.081 5.93357 0)
(213.218 6.49066 0)
(213.327 7.08424 0)
(213.425 7.71255 0)
(213.493 8.37448 0)
(213.519 9.06831 0)
(213.541 9.78081 0)
(213.534 10.5244 0)
(213.496 11.2919 0)
(213.431 12.0853 0)
(213.343 12.9041 0)
(213.235 13.7482 0)
(213.109 14.6189 0)
(212.964 15.5177 0)
(212.801 16.4458 0)
(212.619 17.4041 0)
(212.415 18.3936 0)
(212.189 19.415 0)
(211.943 20.4673 0)
(211.681 21.5491 0)
(211.405 22.6595 0)
(211.114 23.7992 0)
(210.808 24.9697 0)
(210.488 26.1724 0)
(210.154 27.4079 0)
(209.808 28.6771 0)
(209.453 29.9806 0)
(209.092 31.3194 0)
(208.724 32.6947 0)
(208.354 34.1083 0)
(207.982 35.5621 0)
(207.609 37.0592 0)
(207.238 38.6008 0)
(206.877 40.1863 0)
(206.527 41.8185 0)
(206.187 43.5037 0)
(205.86 45.2421 0)
(205.568 47.0309 0)
(205.29 48.8794 0)
(205.062 50.7878 0)
(204.861 52.7583 0)
(204.717 54.7916 0)
(204.624 56.8913 0)
(204.6 59.0588 0)
(204.649 61.2969 0)
(204.784 63.6073 0)
(205.021 65.9924 0)
(205.362 68.4528 0)
(205.843 70.9901 0)
(206.443 73.6016 0)
(207.24 76.2881 0)
(208.163 79.049 0)
(209.363 81.8826 0)
(210.684 84.7908 0)
(212.376 87.7475 0)
(214.198 90.767 0)
(216.501 93.7969 0)
(218.95 96.8914 0)
(221.968 99.9374 0)
(225.138 103.036 0)
(228.932 105.998 0)
(232.927 109 0)
(237.572 111.751 0)
(242.537 114.422 0)
(248.131 116.838 0)
(254.171 119.051 0)
(260.321 120.804 0)
(267.35 122.438 0)
(274.214 123.565 0)
(281.984 124.478 0)
(289.833 124.915 0)
(297.918 124.862 0)
(306.825 124.238 0)
(315.044 123.196 0)
(324.601 121.328 0)
(332.115 119.583 0)
(340.168 117.143 0)
(345.353 115.008 0)
(349.238 112.685 0)
(354.593 111.542 0)
(366.563 110.269 0)
(369.968 118.504 0)
(210 -1.12354e-12 0)
(210 8.00288e-12 0)
(210 7.2705e-12 0)
(210 -3.60541e-12 0)
(210 -8.89338e-12 0)
(210 -1.6914e-11 0)
(210 -9.88993e-12 0)
(210 -1.0906e-11 0)
(210 -1.36748e-11 0)
(210 4.27435e-12 0)
(210 1.07502e-11 0)
(210 8.6889e-12 0)
(210 -9.31033e-10 0)
(210 -7.69725e-08 0)
(210 4.134e-07 0)
(209.995 0.000611335 0)
(209.892 0.0218589 0)
(209.221 0.217034 0)
(207.623 0.776826 0)
(206.116 1.40083 0)
(205.329 1.7431 0)
(205.335 1.88622 0)
(205.778 1.80997 0)
(206.849 1.48499 0)
(208.002 1.12044 0)
(208.94 1.03319 0)
(209.542 1.07584 0)
(209.832 1.2461 0)
(210.006 1.50154 0)
(210.198 1.80134 0)
(210.432 2.11368 0)
(210.71 2.42203 0)
(211.008 2.73736 0)
(211.293 3.08367 0)
(211.569 3.46759 0)
(211.832 3.88535 0)
(212.061 4.33339 0)
(212.247 4.80854 0)
(212.402 5.3038 0)
(212.531 5.82228 0)
(212.651 6.36837 0)
(212.745 6.95014 0)
(212.832 7.56539 0)
(212.876 8.21592 0)
(212.891 8.89391 0)
(212.902 9.59475 0)
(212.877 10.3248 0)
(212.823 11.0784 0)
(212.741 11.8571 0)
(212.635 12.6599 0)
(212.508 13.4869 0)
(212.362 14.3394 0)
(212.197 15.219 0)
(212.013 16.1272 0)
(211.808 17.0648 0)
(211.581 18.0327 0)
(211.331 19.0316 0)
(211.058 20.0609 0)
(210.767 21.1192 0)
(210.459 22.2054 0)
(210.136 23.3199 0)
(209.796 24.464 0)
(209.44 25.6393 0)
(209.068 26.8467 0)
(208.682 28.087 0)
(208.285 29.3607 0)
(207.878 30.6688 0)
(207.462 32.0125 0)
(207.04 33.394 0)
(206.611 34.8149 0)
(206.18 36.2771 0)
(205.747 37.7823 0)
(205.315 39.3332 0)
(204.887 40.9319 0)
(204.467 42.5794 0)
(204.061 44.2758 0)
(203.672 46.0275 0)
(203.286 47.8426 0)
(202.946 49.7084 0)
(202.618 51.642 0)
(202.345 53.6379 0)
(202.105 55.704 0)
(201.924 57.8391 0)
(201.8 60.0479 0)
(201.747 62.3325 0)
(201.779 64.6963 0)
(201.901 67.1396 0)
(202.144 69.6653 0)
(202.491 72.2722 0)
(203.011 74.9668 0)
(203.639 77.7459 0)
(204.513 80.6089 0)
(205.498 83.5431 0)
(206.828 86.5376 0)
(208.272 89.6021 0)
(210.15 92.7221 0)
(212.146 95.9308 0)
(214.664 99.1535 0)
(217.331 102.439 0)
(220.602 105.645 0)
(224.08 108.885 0)
(228.22 111.971 0)
(232.632 115.068 0)
(237.615 117.897 0)
(242.96 120.657 0)
(249.072 123.21 0)
(255.642 125.347 0)
(262.968 127.204 0)
(269.924 128.627 0)
(278.101 129.8 0)
(285.576 130.573 0)
(293.827 130.8 0)
(301.719 130.703 0)
(310.582 130.118 0)
(319.119 129.125 0)
(328.144 127.296 0)
(334.87 124.923 0)
(340.396 121.982 0)
(346.568 119.72 0)
(358.959 117.821 0)
(362.639 125.209 0)
(210 5.58747e-12 0)
(210 1.78107e-11 0)
(210 -4.21307e-12 0)
(210 -1.11463e-11 0)
(210 -1.85647e-11 0)
(210 -1.80128e-11 0)
(210 -9.63497e-12 0)
(210 -6.07181e-12 0)
(210 7.68638e-13 0)
(210 8.05193e-12 0)
(210 1.05089e-11 0)
(210 5.59132e-12 0)
(210 -3.01652e-10 0)
(210 -3.0746e-08 0)
(210 -1.59049e-06 0)
(209.998 0.00012195 0)
(209.949 0.00823061 0)
(209.507 0.120004 0)
(208.104 0.569481 0)
(206.392 1.22822 0)
(205.324 1.64921 0)
(205.226 1.78622 0)
(205.441 1.78703 0)
(206.367 1.57103 0)
(207.567 1.21385 0)
(208.58 1.09321 0)
(209.222 1.08047 0)
(209.541 1.22611 0)
(209.708 1.4719 0)
(209.873 1.7669 0)
(210.061 2.07768 0)
(210.295 2.3822 0)
(210.562 2.68727 0)
(210.83 3.01872 0)
(211.089 3.38847 0)
(211.34 3.7911 0)
(211.557 4.22398 0)
(211.731 4.68498 0)
(211.869 5.16859 0)
(211.982 5.67641 0)
(212.085 6.21216 0)
(212.167 6.78267 0)
(212.238 7.38633 0)
(212.26 8.02609 0)
(212.272 8.68692 0)
(212.26 9.38225 0)
(212.219 10.0988 0)
(212.149 10.8399 0)
(212.049 11.6047 0)
(211.924 12.3929 0)
(211.776 13.2042 0)
(211.608 14.0398 0)
(211.42 14.9015 0)
(211.212 15.7908 0)
(210.984 16.7086 0)
(210.732 17.6557 0)
(210.456 18.6328 0)
(210.156 19.6398 0)
(209.835 20.6755 0)
(209.495 21.7385 0)
(209.139 22.8289 0)
(208.765 23.9479 0)
(208.372 25.0972 0)
(207.961 26.2779 0)
(207.533 27.4907 0)
(207.091 28.7362 0)
(206.637 30.0155 0)
(206.172 31.3295 0)
(205.698 32.6802 0)
(205.214 34.0691 0)
(204.723 35.4985 0)
(204.226 36.9701 0)
(203.727 38.4856 0)
(203.227 40.0467 0)
(202.73 41.6564 0)
(202.238 43.3174 0)
(201.754 45.0319 0)
(201.287 46.7967 0)
(200.843 48.6199 0)
(200.392 50.518 0)
(200.002 52.4624 0)
(199.627 54.4811 0)
(199.308 56.5675 0)
(199.03 58.7283 0)
(198.813 60.9635 0)
(198.663 63.278 0)
(198.589 65.6731 0)
(198.612 68.1539 0)
(198.723 70.7206 0)
(198.978 73.3806 0)
(199.326 76.1279 0)
(199.886 78.9705 0)
(200.539 81.9006 0)
(201.492 84.9312 0)
(202.538 88.0595 0)
(203.979 91.2762 0)
(205.53 94.5746 0)
(207.57 97.9067 0)
(209.746 101.301 0)
(212.484 104.688 0)
(215.408 108.135 0)
(218.948 111.515 0)
(222.758 114.95 0)
(227.273 118.238 0)
(232.147 121.478 0)
(237.602 124.407 0)
(243.594 127.239 0)
(250.216 129.751 0)
(257.535 131.93 0)
(265.279 133.654 0)
(273.604 134.971 0)
(281.737 135.774 0)
(290.516 136.142 0)
(298.173 136.554 0)
(307.52 136.356 0)
(315.292 135.615 0)
(322.21 134.038 0)
(328.024 131.694 0)
(334.1 130.016 0)
(347.487 127.967 0)
(351.046 136.524 0)
(210 4.67186e-12 0)
(210 -3.86708e-12 0)
(210 -1.2535e-11 0)
(210 -1.40268e-11 0)
(210 -1.82531e-11 0)
(210 -9.7862e-12 0)
(210 8.09174e-13 0)
(210 4.16135e-12 0)
(210 -3.29078e-13 0)
(210 9.97963e-12 0)
(210 1.13651e-11 0)
(210 3.76963e-14 0)
(210 -9.00337e-11 0)
(210 -9.70162e-09 0)
(210 -7.29847e-07 0)
(209.999 4.82145e-06 0)
(209.979 0.00245846 0)
(209.719 0.0573779 0)
(208.592 0.380179 0)
(206.772 1.02031 0)
(205.394 1.50252 0)
(205.143 1.69109 0)
(205.157 1.77037 0)
(205.901 1.65642 0)
(207.106 1.30847 0)
(208.19 1.14878 0)
(208.876 1.08311 0)
(209.238 1.20883 0)
(209.405 1.44251 0)
(209.549 1.72543 0)
(209.69 2.02858 0)
(209.874 2.32841 0)
(210.103 2.62721 0)
(210.351 2.94841 0)
(210.592 3.31007 0)
(210.829 3.70421 0)
(211.033 4.1279 0)
(211.195 4.57874 0)
(211.315 5.05325 0)
(211.413 5.55125 0)
(211.499 6.07671 0)
(211.57 6.63452 0)
(211.621 7.22538 0)
(211.627 7.85011 0)
(211.632 8.49624 0)
(211.599 9.17896 0)
(211.543 9.88099 0)
(211.456 10.607 0)
(211.34 11.3555 0)
(211.196 12.1261 0)
(211.029 12.9184 0)
(210.84 13.7336 0)
(210.631 14.5738 0)
(210.401 15.4407 0)
(210.15 16.3354 0)
(209.876 17.2585 0)
(209.576 18.2109 0)
(209.251 19.1926 0)
(208.902 20.2026 0)
(208.534 21.2394 0)
(208.147 22.3029 0)
(207.741 23.3938 0)
(207.315 24.5139 0)
(206.869 25.6642 0)
(206.405 26.8459 0)
(205.923 28.0594 0)
(205.426 29.3057 0)
(204.916 30.5857 0)
(204.394 31.9012 0)
(203.86 33.2538 0)
(203.314 34.6458 0)
(202.76 36.0786 0)
(202.198 37.5544 0)
(201.63 39.075 0)
(201.06 40.6427 0)
(200.49 42.2596 0)
(199.923 43.9286 0)
(199.362 45.6531 0)
(198.807 47.4366 0)
(198.271 49.2738 0)
(197.761 51.1759 0)
(197.244 53.1562 0)
(196.788 55.1926 0)
(196.353 57.3075 0)
(195.972 59.4988 0)
(195.64 61.7729 0)
(195.37 64.1302 0)
(195.177 66.5757 0)
(195.059 69.1093 0)
(195.062 71.74 0)
(195.145 74.4628 0)
(195.41 77.2918 0)
(195.751 80.2141 0)
(196.358 83.2454 0)
(197.043 86.3662 0)
(198.084 89.586 0)
(199.21 92.8934 0)
(200.776 96.285 0)
(202.456 99.771 0)
(204.668 103.318 0)
(207.066 106.949 0)
(210.063 110.572 0)
(213.323 114.232 0)
(217.2 117.792 0)
(221.381 121.391 0)
(226.26 124.811 0)
(231.521 128.148 0)
(237.457 131.237 0)
(244.012 134.182 0)
(250.983 136.589 0)
(259.025 138.996 0)
(267.126 140.616 0)
(276.505 141.866 0)
(285.304 142.256 0)
(295.744 142.403 0)
(305.165 141.611 0)
(313.39 140.094 0)
(320.563 137.771 0)
(327.077 136.69 0)
(340.753 135.894 0)
(343.741 146.461 0)
(210 1.83437e-12 0)
(210 -1.24917e-11 0)
(210 -1.12615e-11 0)
(210 -9.10078e-12 0)
(210 -1.13105e-11 0)
(210 1.88094e-12 0)
(210 1.44952e-12 0)
(210 -2.56252e-12 0)
(210 4.24788e-13 0)
(210 2.31325e-11 0)
(210 9.88369e-12 0)
(210 -3.47615e-12 0)
(210 -2.72039e-11 0)
(210 -2.58536e-09 0)
(210 -2.44089e-07 0)
(210 -8.81536e-06 0)
(209.993 0.000503517 0)
(209.858 0.0229715 0)
(209.04 0.226641 0)
(207.261 0.790484 0)
(205.587 1.32727 0)
(205.091 1.61211 0)
(204.939 1.73564 0)
(205.453 1.69494 0)
(206.613 1.37763 0)
(207.765 1.18453 0)
(208.509 1.07916 0)
(208.93 1.18441 0)
(209.105 1.39649 0)
(209.231 1.65884 0)
(209.329 1.94805 0)
(209.462 2.24123 0)
(209.647 2.53573 0)
(209.876 2.8485 0)
(210.102 3.20396 0)
(210.326 3.59137 0)
(210.519 4.0072 0)
(210.67 4.44879 0)
(210.773 4.9151 0)
(210.856 5.40434 0)
(210.924 5.92063 0)
(210.981 6.46692 0)
(211.01 7.04531 0)
(211.01 7.65073 0)
(210.996 8.28938 0)
(210.945 8.95616 0)
(210.871 9.64394 0)
(210.767 10.3544 0)
(210.633 11.0861 0)
(210.47 11.8388 0)
(210.283 12.6123 0)
(210.073 13.4076 0)
(209.841 14.2268 0)
(209.588 15.0718 0)
(209.312 15.9436 0)
(209.014 16.843 0)
(208.69 17.7708 0)
(208.339 18.7273 0)
(207.962 19.7119 0)
(207.564 20.7231 0)
(207.145 21.7602 0)
(206.707 22.824 0)
(206.247 23.916 0)
(205.765 25.0373 0)
(205.262 26.1891 0)
(204.74 27.372 0)
(204.2 28.5867 0)
(203.644 29.8342 0)
(203.073 31.1161 0)
(202.488 32.4338 0)
(201.888 33.7895 0)
(201.276 35.1849 0)
(200.652 36.6219 0)
(200.019 38.1021 0)
(199.379 39.6281 0)
(198.733 41.2018 0)
(198.085 42.8258 0)
(197.437 44.5025 0)
(196.793 46.2349 0)
(196.155 48.0271 0)
(195.526 49.8819 0)
(194.915 51.7951 0)
(194.334 53.7774 0)
(193.751 55.8414 0)
(193.227 57.9691 0)
(192.732 60.1793 0)
(192.291 62.473 0)
(191.908 64.8555 0)
(191.585 67.3278 0)
(191.357 69.8994 0)
(191.193 72.5665 0)
(191.177 75.3454 0)
(191.222 78.2231 0)
(191.493 81.2261 0)
(191.818 84.3316 0)
(192.458 87.5655 0)
(193.165 90.9004 0)
(194.281 94.3533 0)
(195.497 97.911 0)
(197.205 101.568 0)
(199.061 105.329 0)
(201.465 109.152 0)
(204.118 113.066 0)
(207.383 116.979 0)
(210.979 120.948 0)
(215.258 124.808 0)
(219.919 128.669 0)
(225.289 132.269 0)
(231.107 135.765 0)
(237.659 139.007 0)
(244.705 141.812 0)
(252.464 144.362 0)
(260.652 146.497 0)
(269.131 148.221 0)
(278.267 149.613 0)
(288.396 150.385 0)
(297.092 150.048 0)
(305.462 148.495 0)
(312.626 147.242 0)
(326.635 146.135 0)
(329.643 155.827 0)
(210 -1.76954e-12 0)
(210 -1.06776e-11 0)
(210 -1.18458e-11 0)
(210 -1.19372e-11 0)
(210 -1.06254e-11 0)
(210 -1.46498e-12 0)
(210 -8.85908e-12 0)
(210 -4.06528e-12 0)
(210 7.20191e-12 0)
(210 9.63093e-12 0)
(210 -6.52743e-12 0)
(210 -8.12541e-14 0)
(210 -2.71612e-12 0)
(210 -6.07633e-10 0)
(210 -6.77377e-08 0)
(210 -4.6437e-06 0)
(209.998 2.00788e-05 0)
(209.938 0.00725968 0)
(209.406 0.117168 0)
(207.821 0.56342 0)
(205.908 1.13202 0)
(205.058 1.53579 0)
(204.777 1.63209 0)
(205.062 1.67418 0)
(206.114 1.44654 0)
(207.316 1.23677 0)
(208.124 1.086 0)
(208.61 1.14943 0)
(208.803 1.33202 0)
(208.912 1.57865 0)
(208.971 1.86033 0)
(209.055 2.15643 0)
(209.19 2.45712 0)
(209.398 2.76847 0)
(209.607 3.12055 0)
(209.818 3.50251 0)
(210.001 3.91079 0)
(210.141 4.34253 0)
(210.228 4.79866 0)
(210.295 5.27645 0)
(210.343 5.78059 0)
(210.384 6.31316 0)
(210.393 6.87711 0)
(210.389 7.46248 0)
(210.351 8.08946 0)
(210.283 8.73905 0)
(210.19 9.41098 0)
(210.068 10.104 0)
(209.916 10.817 0)
(209.736 11.5495 0)
(209.529 12.3016 0)
(209.299 13.0745 0)
(209.046 13.8701 0)
(208.771 14.6906 0)
(208.473 15.5373 0)
(208.151 16.4106 0)
(207.804 17.3115 0)
(207.428 18.2403 0)
(207.026 19.1969 0)
(206.6 20.1798 0)
(206.153 21.1881 0)
(205.684 22.2221 0)
(205.194 23.2832 0)
(204.68 24.3726 0)
(204.143 25.4915 0)
(203.584 26.6403 0)
(203.006 27.82 0)
(202.409 29.0313 0)
(201.795 30.2757 0)
(201.163 31.5545 0)
(200.515 32.87 0)
(199.85 34.2236 0)
(199.171 35.6175 0)
(198.478 37.0533 0)
(197.773 38.5332 0)
(197.058 40.0594 0)
(196.335 41.6346 0)
(195.606 43.2609 0)
(194.874 44.9416 0)
(194.141 46.6792 0)
(193.411 48.4775 0)
(192.688 50.3402 0)
(191.973 52.2708 0)
(191.276 54.2669 0)
(190.61 56.3386 0)
(189.945 58.4968 0)
(189.332 60.7325 0)
(188.758 63.0557 0)
(188.234 65.4717 0)
(187.783 67.988 0)
(187.384 70.6016 0)
(187.106 73.3289 0)
(186.875 76.1572 0)
(186.836 79.115 0)
(186.836 82.1723 0)
(187.115 85.3675 0)
(187.439 88.6687 0)
(188.122 92.1205 0)
(188.867 95.6969 0)
(190.052 99.4173 0)
(191.352 103.256 0)
(193.166 107.198 0)
(195.199 111.241 0)
(197.795 115.347 0)
(200.715 119.551 0)
(204.289 123.754 0)
(208.262 128.019 0)
(213.014 132.169 0)
(218.239 136.309 0)
(224.22 140.209 0)
(230.879 143.975 0)
(238.353 147.281 0)
(246.547 150.185 0)
(255.398 152.564 0)
(264.084 154.512 0)
(274.761 156.228 0)
(282.854 157.156 0)
(290.964 156.587 0)
(297.922 156.33 0)
(312.56 155.849 0)
(314.703 167.23 0)
(210 -1.52108e-12 0)
(210 -7.712e-12 0)
(210 -8.20251e-12 0)
(210 -1.65699e-11 0)
(210 5.07271e-12 0)
(210 5.11308e-12 0)
(210 -3.32715e-12 0)