/*--------------------------------*- C++ -*----------------------------------*\
| =========                 |                                                 |
| \\      /  F ield         | OpenFOAM: The Open Source CFD Toolbox           |
|  \\    /   O peration     | Version:  2412                                  |
|   \\  /    A nd           | Website:  www.openfoam.com                      |
|    \\/     M anipulation  |                                                 |
\*---------------------------------------------------------------------------*/
FoamFile
{
    version     2.0;
    format      ascii;
    arch        "LSB;label=32;scalar=64";
    class       volVectorField;
    location    "0.027";
    object      U;
}
// * * * * * * * * * * * * * * * * * * * * * * * * * * * * * * * * * * * * * //

dimensions      [0 1 -1 0 0 0 0];

internalField   nonuniform List<vector> 
78650
(
(210 3.49537e-12 0)
(210 1.16748e-11 0)
(210 -1.08023e-12 0)
(210 1.19745e-11 0)
(210 2.00056e-11 0)
(210 -3.37808e-12 0)
(210 -3.79939e-12 0)
(210 6.12689e-12 0)
(210 9.18515e-12 0)
(210 1.77064e-12 0)
(210 2.11851e-10 0)
(210 2.60181e-08 0)
(210 2.74563e-06 0)
(209.999 0.000284922 0)
(209.959 0.0111906 0)
(209.591 0.141923 0)
(208.43 0.639719 0)
(206.994 1.34821 0)
(206.105 1.82147 0)
(206.035 1.94034 0)
(206.216 1.93718 0)
(207.157 1.68414 0)
(208.443 1.22676 0)
(209.603 0.961993 0)
(210.417 0.809469 0)
(211.017 0.871064 0)
(211.435 1.05208 0)
(211.736 1.3007 0)
(212.052 1.56654 0)
(212.445 1.83623 0)
(212.89 2.11972 0)
(213.328 2.43762 0)
(213.739 2.79677 0)
(214.13 3.199 0)
(214.508 3.64798 0)
(214.862 4.14388 0)
(215.187 4.67764 0)
(215.487 5.2365 0)
(215.76 5.81673 0)
(216.01 6.42185 0)
(216.237 7.05926 0)
(216.445 7.73053 0)
(216.624 8.43703 0)
(216.789 9.17359 0)
(216.931 9.93673 0)
(217.037 10.7257 0)
(217.113 11.5398 0)
(217.174 12.3782 0)
(217.223 13.2422 0)
(217.255 14.1365 0)
(217.273 15.0625 0)
(217.282 16.0218 0)
(217.282 17.0158 0)
(217.271 18.0457 0)
(217.246 19.1126 0)
(217.207 20.2158 0)
(217.157 21.3534 0)
(217.097 22.5235 0)
(217.032 23.7242 0)
(216.96 24.9569 0)
(216.883 26.2231 0)
(216.802 27.5238 0)
(216.719 28.8606 0)
(216.639 30.2315 0)
(216.567 31.6389 0)
(216.504 33.0838 0)
(216.454 34.5661 0)
(216.423 36.0895 0)
(216.409 37.655 0)
(216.424 39.2642 0)
(216.468 40.9186 0)
(216.547 42.6189 0)
(216.674 44.3671 0)
(216.846 46.1632 0)
(217.084 48.0093 0)
(217.381 49.9052 0)
(217.765 51.8527 0)
(218.224 53.8512 0)
(218.789 55.9012 0)
(219.457 58.0015 0)
(220.249 60.1509 0)
(221.176 62.3476 0)
(222.254 64.5879 0)
(223.502 66.8659 0)
(224.93 69.1772 0)
(226.573 71.5137 0)
(228.416 73.878 0)
(230.536 76.248 0)
(232.863 78.6263 0)
(235.555 80.9388 0)
(238.443 83.2416 0)
(241.812 85.4225 0)
(245.347 87.6526 0)
(249.445 89.6127 0)
(253.677 91.5843 0)
(258.438 93.2219 0)
(263.487 94.7336 0)
(269.028 96.0313 0)
(274.997 97.1246 0)
(281.07 97.9254 0)
(287.51 98.4437 0)
(294.772 98.2816 0)
(302.664 97.6472 0)
(309.107 97.1623 0)
(315.387 96.3094 0)
(322.229 95.0939 0)
(330.862 93.0706 0)
(337.864 90.9846 0)
(344.025 89.2742 0)
(350.009 87.3306 0)
(355.286 85.4526 0)
(361.487 82.8004 0)
(366.756 80.6441 0)
(372.246 78.1921 0)
(376.034 76.0911 0)
(378.217 74.377 0)
(379.953 72.1653 0)
(382.212 70.8698 0)
(387.001 69.6352 0)
(394.675 68.329 0)
(397.647 72.1674 0)
(210 6.74598e-12 0)
(210 7.95517e-12 0)
(210 -7.76776e-13 0)
(210 1.47631e-11 0)
(210 7.41152e-12 0)
(210 -5.29622e-13 0)
(210 7.83901e-13 0)
(210 6.24783e-12 0)
(210 -2.13354e-12 0)
(210 -9.60017e-12 0)
(210 5.04868e-11 0)
(210 7.48862e-09 0)
(210 8.92924e-07 0)
(209.999 0.000109956 0)
(209.977 0.0056175 0)
(209.719 0.0899881 0)
(208.707 0.495132 0)
(207.2 1.20147 0)
(206.125 1.72509 0)
(205.969 1.88739 0)
(206.022 1.9541 0)
(206.829 1.78929 0)
(208.103 1.34633 0)
(209.298 1.05008 0)
(210.138 0.866315 0)
(210.763 0.9009 0)
(211.185 1.06245 0)
(211.467 1.30109 0)
(211.756 1.56749 0)
(212.122 1.84353 0)
(212.548 2.1313 0)
(212.975 2.44893 0)
(213.376 2.80554 0)
(213.756 3.20411 0)
(214.123 3.64685 0)
(214.465 4.13431 0)
(214.778 4.65826 0)
(215.062 5.20694 0)
(215.32 5.77557 0)
(215.554 6.36784 0)
(215.767 6.99152 0)
(215.958 7.64914 0)
(216.122 8.34261 0)
(216.273 9.06621 0)
(216.399 9.817 0)
(216.487 10.5941 0)
(216.549 11.3959 0)
(216.595 12.2215 0)
(216.624 13.0727 0)
(216.631 13.9537 0)
(216.624 14.8647 0)
(216.607 15.808 0)
(216.578 16.7853 0)
(216.539 17.7973 0)
(216.486 18.8452 0)
(216.418 19.9295 0)
(216.337 21.0484 0)
(216.247 22.199 0)
(216.149 23.3805 0)
(216.044 24.5935 0)
(215.932 25.8392 0)
(215.814 27.1188 0)
(215.69 28.4351 0)
(215.567 29.7843 0)
(215.447 31.1689 0)
(215.332 32.592 0)
(215.227 34.0516 0)
(215.137 35.5523 0)
(215.058 37.0948 0)
(215.004 38.6808 0)
(214.971 40.3121 0)
(214.967 41.9895 0)
(215.003 43.7158 0)
(215.077 45.491 0)
(215.207 47.3177 0)
(215.387 49.1961 0)
(215.642 51.1287 0)
(215.962 53.1151 0)
(216.377 55.1573 0)
(216.88 57.2549 0)
(217.494 59.4078 0)
(218.229 61.6149 0)
(219.1 63.8746 0)
(220.125 66.1845 0)
(221.314 68.5428 0)
(222.7 70.941 0)
(224.276 73.3741 0)
(226.111 75.8206 0)
(228.144 78.2832 0)
(230.52 80.7213 0)
(233.088 83.183 0)
(236.105 85.5804 0)
(239.281 88.0055 0)
(242.997 90.2277 0)
(246.822 92.4788 0)
(251.235 94.4227 0)
(255.84 96.3814 0)
(260.974 98.0309 0)
(266.518 99.5207 0)
(272.357 100.601 0)
(278.895 101.454 0)
(285.41 101.931 0)
(292.01 102.148 0)
(298.186 102.228 0)
(305.933 101.645 0)
(313.242 100.629 0)
(320.851 99.4417 0)
(328.261 97.7949 0)
(334.886 96.117 0)
(342.002 94.0191 0)
(348.32 91.939 0)
(354.655 89.5371 0)
(360.403 87.3679 0)
(366.618 84.7058 0)
(371.433 82.1526 0)
(374.699 79.7993 0)
(376.767 77.4135 0)
(378.357 76.1028 0)
(382.495 75.1867 0)
(391.001 73.9621 0)
(394.283 78.8229 0)
(210 2.42725e-12 0)
(210 5.0293e-12 0)
(210 -4.62385e-12 0)
(210 5.62943e-12 0)
(210 3.22887e-12 0)
(210 -5.67102e-12 0)
(210 -2.31296e-12 0)
(210 -6.25564e-12 0)
(210 -1.28587e-12 0)
(210 -2.93754e-12 0)
(210 2.4591e-11 0)
(210 3.21072e-09 0)
(210 3.33467e-07 0)
(210 3.98754e-05 0)
(209.988 0.00259243 0)
(209.818 0.0534439 0)
(208.985 0.366877 0)
(207.467 1.04059 0)
(206.194 1.61439 0)
(205.905 1.83636 0)
(205.861 1.96458 0)
(206.506 1.87374 0)
(207.73 1.44713 0)
(208.954 1.11492 0)
(209.835 0.898685 0)
(210.495 0.904336 0)
(210.932 1.04545 0)
(211.2 1.27374 0)
(211.463 1.54098 0)
(211.8 1.8252 0)
(212.206 2.12013 0)
(212.62 2.43974 0)
(213.011 2.79506 0)
(213.379 3.19084 0)
(213.734 3.62815 0)
(214.065 4.10783 0)
(214.364 4.62247 0)
(214.632 5.16157 0)
(214.875 5.71936 0)
(215.093 6.29979 0)
(215.29 6.91069 0)
(215.465 7.55569 0)
(215.613 8.23701 0)
(215.751 8.94837 0)
(215.858 9.6879 0)
(215.929 10.4545 0)
(215.977 11.2457 0)
(216.008 12.0602 0)
(216.018 12.8993 0)
(216.003 13.7699 0)
(215.973 14.6691 0)
(215.93 15.5988 0)
(215.876 16.5609 0)
(215.808 17.5567 0)
(215.727 18.5877 0)
(215.629 19.6544 0)
(215.517 20.7555 0)
(215.393 21.889 0)
(215.261 23.0533 0)
(215.12 24.2485 0)
(214.971 25.4763 0)
(214.813 26.7384 0)
(214.649 28.0344 0)
(214.481 29.3653 0)
(214.314 30.7308 0)
(214.145 32.1369 0)
(213.986 33.5752 0)
(213.836 35.0542 0)
(213.694 36.5755 0)
(213.572 38.1396 0)
(213.465 39.7498 0)
(213.383 41.4046 0)
(213.332 43.1086 0)
(213.313 44.8611 0)
(213.342 46.6653 0)
(213.411 48.5214 0)
(213.548 50.4322 0)
(213.74 52.3972 0)
(214.015 54.4193 0)
(214.367 56.4977 0)
(214.817 58.6335 0)
(215.374 60.8264 0)
(216.051 63.0757 0)
(216.864 65.3794 0)
(217.823 67.7342 0)
(218.96 70.135 0)
(220.266 72.5813 0)
(221.804 75.0642 0)
(223.519 77.5882 0)
(225.543 80.1282 0)
(227.749 82.7072 0)
(230.369 85.2492 0)
(233.152 87.8002 0)
(236.45 90.2113 0)
(239.884 92.6642 0)
(243.932 94.8976 0)
(248.111 97.1956 0)
(252.863 99.1763 0)
(257.885 101.068 0)
(263.434 102.653 0)
(269.384 104.017 0)
(275.381 105.051 0)
(281.881 105.83 0)
(288.971 106.115 0)
(296.336 106.072 0)
(303.87 105.527 0)
(310.209 105.073 0)
(318.017 103.978 0)
(325.257 102.594 0)
(332.139 101.089 0)
(339.456 99.1909 0)
(345.919 97.1677 0)
(351.945 95.2719 0)
(358.666 92.8792 0)
(363.982 90.5145 0)
(368.331 87.8095 0)
(371.713 84.779 0)
(374.498 82.7845 0)
(379.565 81.1382 0)
(388.481 79.8045 0)
(392.172 84.3368 0)
(210 1.05176e-11 0)
(210 7.44122e-12 0)
(210 3.37479e-12 0)
(210 4.34931e-12 0)
(210 -7.84151e-14 0)
(210 -1.33926e-11 0)
(210 -7.76626e-12 0)
(210 -8.51634e-12 0)
(210 -1.23459e-12 0)
(210 1.38981e-12 0)
(210 7.86064e-12 0)
(210 6.13635e-10 0)
(210 6.84008e-08 0)
(210 1.07942e-05 0)
(209.994 0.00104067 0)
(209.89 0.028785 0)
(209.242 0.253553 0)
(207.776 0.864246 0)
(206.324 1.4909 0)
(205.866 1.78496 0)
(205.725 1.95581 0)
(206.195 1.92953 0)
(207.345 1.54972 0)
(208.598 1.20011 0)
(209.522 0.950053 0)
(210.217 0.926145 0)
(210.67 1.05058 0)
(210.927 1.27185 0)
(211.168 1.54184 0)
(211.479 1.8341 0)
(211.861 2.13467 0)
(212.259 2.45321 0)
(212.638 2.80276 0)
(212.992 3.19125 0)
(213.334 3.61926 0)
(213.651 4.08763 0)
(213.937 4.58986 0)
(214.188 5.11695 0)
(214.414 5.66211 0)
(214.615 6.22956 0)
(214.797 6.82674 0)
(214.955 7.45844 0)
(215.089 8.1266 0)
(215.212 8.82475 0)
(215.3 9.55227 0)
(215.353 10.307 0)
(215.39 11.0851 0)
(215.409 11.8839 0)
(215.397 12.7158 0)
(215.364 13.573 0)
(215.314 14.4578 0)
(215.25 15.3724 0)
(215.171 16.3185 0)
(215.078 17.297 0)
(214.97 18.3094 0)
(214.844 19.3566 0)
(214.702 20.4379 0)
(214.548 21.5512 0)
(214.383 22.6949 0)
(214.209 23.8689 0)
(214.025 25.0747 0)
(213.831 26.3136 0)
(213.627 27.587 0)
(213.417 28.8947 0)
(213.204 30.2382 0)
(212.992 31.6156 0)
(212.782 33.0299 0)
(212.575 34.4846 0)
(212.373 35.9809 0)
(212.186 37.5162 0)
(212.008 39.0996 0)
(211.852 40.7266 0)
(211.718 42.4039 0)
(211.61 44.1296 0)
(211.54 45.9076 0)
(211.503 47.7382 0)
(211.523 49.6249 0)
(211.587 51.5676 0)
(211.724 53.5699 0)
(211.925 55.6318 0)
(212.212 57.7554 0)
(212.59 59.9415 0)
(213.075 62.1901 0)
(213.681 64.5006 0)
(214.416 66.8726 0)
(215.31 69.3056 0)
(216.358 71.7979 0)
(217.616 74.3397 0)
(219.046 76.9278 0)
(220.762 79.5431 0)
(222.65 82.1972 0)
(224.914 84.8354 0)
(227.334 87.4939 0)
(230.229 90.0848 0)
(233.26 92.731 0)
(236.872 95.2439 0)
(240.606 97.809 0)
(244.969 100.078 0)
(249.516 102.328 0)
(254.602 104.262 0)
(260.066 106.041 0)
(266.075 107.526 0)
(272.606 108.766 0)
(279.528 109.609 0)
(285.994 110.185 0)
(293.516 110.412 0)
(300.847 110.119 0)
(308.287 109.609 0)
(316.728 108.511 0)
(323.692 107.308 0)
(331.35 105.714 0)
(338.452 103.896 0)
(344.708 102.202 0)
(351.309 100.152 0)
(356.916 98.189 0)
(361.764 95.7577 0)
(365.174 93.0054 0)
(367.902 90.9198 0)
(372.975 89.3204 0)
(382.695 87.7402 0)
(386.407 92.9409 0)
(210 1.67193e-11 0)
(210 4.74085e-13 0)
(210 8.20064e-12 0)
(210 7.89932e-12 0)
(210 -6.69739e-13 0)
(210 -1.06381e-11 0)
(210 -5.85415e-12 0)
(210 5.04039e-13 0)
(210 -2.90582e-12 0)
(210 -6.16454e-12 0)
(210 -6.96319e-13 0)
(210 1.1916e-10 0)
(210 1.04361e-08 0)
(210 2.16234e-06 0)
(209.997 0.000362765 0)
(209.939 0.0139728 0)
(209.469 0.162607 0)
(208.134 0.684789 0)
(206.542 1.34907 0)
(205.836 1.73714 0)
(205.602 1.91108 0)
(205.909 1.95317 0)
(206.95 1.64826 0)
(208.207 1.27815 0)
(209.178 0.981489 0)
(209.918 0.919977 0)
(210.401 1.02626 0)
(210.656 1.24235 0)
(210.877 1.51867 0)
(211.159 1.8234 0)
(211.512 2.13352 0)
(211.889 2.45259 0)
(212.254 2.79583 0)
(212.593 3.17586 0)
(212.919 3.59369 0)
(213.224 4.04993 0)
(213.496 4.53901 0)
(213.731 5.05356 0)
(213.94 5.58594 0)
(214.123 6.14056 0)
(214.29 6.72419 0)
(214.432 7.34297 0)
(214.552 7.9981 0)
(214.659 8.68367 0)
(214.725 9.40009 0)
(214.763 10.1437 0)
(214.79 10.9065 0)
(214.789 11.6991 0)
(214.758 12.5186 0)
(214.707 13.3638 0)
(214.638 14.2364 0)
(214.551 15.1379 0)
(214.45 16.0694 0)
(214.332 17.032 0)
(214.197 18.027 0)
(214.044 19.0558 0)
(213.873 20.1181 0)
(213.686 21.2123 0)
(213.487 22.3368 0)
(213.278 23.4912 0)
(213.057 24.6767 0)
(212.824 25.8949 0)
(212.581 27.1467 0)
(212.328 28.4326 0)
(212.069 29.7531 0)
(211.806 31.1095 0)
(211.542 32.5026 0)
(211.28 33.9333 0)
(211.023 35.4022 0)
(210.773 36.9127 0)
(210.522 38.4744 0)
(210.294 40.0726 0)
(210.079 41.722 0)
(209.885 43.4201 0)
(209.723 45.1705 0)
(209.585 46.9733 0)
(209.497 48.8317 0)
(209.443 50.7459 0)
(209.454 52.7196 0)
(209.517 54.7527 0)
(209.656 56.8484 0)
(209.872 59.0073 0)
(210.182 61.2306 0)
(210.596 63.5187 0)
(211.123 65.872 0)
(211.788 68.2897 0)
(212.589 70.7694 0)
(213.577 73.3069 0)
(214.717 75.9043 0)
(216.107 78.5565 0)
(217.648 81.2691 0)
(219.528 84.0066 0)
(221.56 86.7899 0)
(224.048 89.5635 0)
(226.692 92.3952 0)
(229.891 95.1352 0)
(233.232 97.9051 0)
(237.196 100.449 0)
(241.306 103.025 0)
(246.026 105.309 0)
(251.037 107.551 0)
(256.564 109.485 0)
(262.455 111.243 0)
(268.868 112.749 0)
(275.549 113.709 0)
(282.302 114.405 0)
(290.562 114.771 0)
(297.326 114.702 0)
(305.747 114.264 0)
(313.429 113.381 0)
(320.746 112.323 0)
(329.27 110.618 0)
(336.493 108.705 0)
(344.446 106.218 0)
(350.944 104.046 0)
(356.77 101.409 0)
(360.356 99.0354 0)
(363.184 97.0727 0)
(368.34 95.8598 0)
(379.005 94.6306 0)
(382.581 101.381 0)
(210 5.55457e-13 0)
(210 -6.76961e-12 0)
(210 4.0089e-12 0)
(210 -5.15476e-13 0)
(210 -4.98176e-12 0)
(210 -1.53872e-11 0)
(210 -8.83684e-12 0)
(210 -2.44187e-12 0)
(210 -6.61885e-12 0)
(210 -4.50679e-12 0)
(210 7.17047e-12 0)
(210 -1.33236e-11 0)
(210 -2.61797e-09 0)
(210 9.88513e-08 0)
(209.999 0.000101135 0)
(209.969 0.00591204 0)
(209.656 0.0943772 0)
(208.507 0.507871 0)
(206.824 1.1781 0)
(205.852 1.65614 0)
(205.484 1.84297 0)
(205.673 1.96257 0)
(206.557 1.74384 0)
(207.788 1.35942 0)
(208.811 1.02191 0)
(209.604 0.943972 0)
(210.122 1.03874 0)
(210.383 1.24704 0)
(210.588 1.52197 0)
(210.841 1.8297 0)
(211.159 2.14297 0)
(211.509 2.45901 0)
(211.855 2.7932 0)
(212.176 3.16239 0)
(212.487 3.56849 0)
(212.778 4.01123 0)
(213.035 4.48601 0)
(213.253 4.98719 0)
(213.444 5.50669 0)
(213.609 6.04889 0)
(213.76 6.61958 0)
(213.885 7.22603 0)
(213.994 7.86794 0)
(214.083 8.54136 0)
(214.127 9.24648 0)
(214.155 9.9754 0)
(214.17 10.7243 0)
(214.148 11.5061 0)
(214.101 12.3116 0)
(214.032 13.143 0)
(213.944 14.0008 0)
(213.839 14.8863 0)
(213.716 15.8008 0)
(213.576 16.7454 0)
(213.418 17.7214 0)
(213.24 18.73 0)
(213.041 19.7714 0)
(212.825 20.8444 0)
(212.594 21.947 0)
(212.352 23.0786 0)
(212.097 24.2404 0)
(211.829 25.4338 0)
(211.547 26.6603 0)
(211.254 27.9205 0)
(210.953 29.2149 0)
(210.645 30.5436 0)
(210.333 31.9079 0)
(210.02 33.3097 0)
(209.705 34.7514 0)
(209.392 36.2352 0)
(209.086 37.7591 0)
(208.787 39.3281 0)
(208.494 40.9485 0)
(208.218 42.6146 0)
(207.965 44.3311 0)
(207.73 46.1018 0)
(207.536 47.9284 0)
(207.367 49.8127 0)
(207.253 51.7572 0)
(207.179 53.7629 0)
(207.17 55.8333 0)
(207.224 57.9705 0)
(207.358 60.1763 0)
(207.58 62.452 0)
(207.901 64.7982 0)
(208.343 67.2164 0)
(208.905 69.707 0)
(209.631 72.2706 0)
(210.493 74.9058 0)
(211.58 77.6054 0)
(212.811 80.3626 0)
(214.358 83.1543 0)
(216.05 85.9947 0)
(218.157 88.8511 0)
(220.396 91.7631 0)
(223.13 94.6298 0)
(225.988 97.531 0)
(229.435 100.313 0)
(233.027 103.156 0)
(237.282 105.804 0)
(241.749 108.484 0)
(246.814 110.904 0)
(252.273 113.183 0)
(258.195 115.075 0)
(264.925 116.865 0)
(271.449 118.037 0)
(279.06 119.103 0)
(286.436 119.631 0)
(293.988 119.871 0)
(302.148 119.713 0)
(309.758 119.103 0)
(317.623 118.186 0)
(325.5 116.96 0)
(333.424 115.372 0)
(340.816 113.659 0)
(348.19 111.027 0)
(353.199 107.991 0)
(357.06 105.279 0)
(362.725 103.13 0)
(373.716 101.351 0)
(377.553 107.421 0)
(210 5.55571e-12 0)
(210 4.70655e-12 0)
(210 6.43132e-12 0)
(210 -5.01912e-12 0)
(210 -3.49818e-12 0)
(210 -1.86368e-11 0)
(210 -1.58742e-11 0)
(210 -1.40092e-12 0)
(210 -9.0412e-12 0)
(210 3.85371e-12 0)
(210 5.17273e-12 0)
(210 -2.11098e-11 0)
(210 -2.03245e-09 0)
(210 -1.13258e-07 0)
(210 1.96258e-05 0)
(209.986 0.00212643 0)
(209.797 0.0487969 0)
(208.88 0.349024 0)
(207.191 0.986754 0)
(205.945 1.54464 0)
(205.391 1.78146 0)
(205.482 1.95719 0)
(206.159 1.80024 0)
(207.33 1.41789 0)
(208.413 1.05006 0)
(209.274 0.968319 0)
(209.837 1.04657 0)
(210.11 1.24141 0)
(210.3 1.51 0)
(210.521 1.8167 0)
(210.799 2.13142 0)
(211.116 2.44442 0)
(211.439 2.76972 0)
(211.743 3.12813 0)
(212.037 3.52301 0)
(212.314 3.95241 0)
(212.558 4.41241 0)
(212.76 4.89907 0)
(212.934 5.4047 0)
(213.081 5.93355 0)
(213.218 6.49069 0)
(213.327 7.08427 0)
(213.425 7.71256 0)
(213.493 8.37445 0)
(213.519 9.06833 0)
(213.541 9.78065 0)
(213.533 10.5246 0)
(213.495 11.2922 0)
(213.431 12.0855 0)
(213.343 12.904 0)
(213.235 13.7481 0)
(213.108 14.619 0)
(212.964 15.518 0)
(212.801 16.4461 0)
(212.619 17.4042 0)
(212.415 18.3936 0)
(212.189 19.4149 0)
(211.943 20.4674 0)
(211.681 21.5493 0)
(211.405 22.6596 0)
(211.114 23.7992 0)
(210.809 24.9697 0)
(210.488 26.1724 0)
(210.154 27.4081 0)
(209.808 28.6774 0)
(209.453 29.9809 0)
(209.092 31.3197 0)
(208.725 32.695 0)
(208.354 34.1084 0)
(207.983 35.5618 0)
(207.611 37.0587 0)
(207.241 38.6003 0)
(206.879 40.1861 0)
(206.528 41.8187 0)
(206.188 43.5038 0)
(205.859 45.2433 0)
(205.566 47.0321 0)
(205.287 48.8809 0)
(205.061 50.7887 0)
(204.861 52.7587 0)
(204.719 54.7914 0)
(204.626 56.891 0)
(204.603 59.0588 0)
(204.653 61.2971 0)
(204.788 63.6076 0)
(205.025 65.9933 0)
(205.364 68.4545 0)
(205.843 70.9921 0)
(206.441 73.6033 0)
(207.238 76.2882 0)
(208.163 79.0457 0)
(209.365 81.8762 0)
(210.689 84.79 0)
(212.384 87.7667 0)
(214.203 90.8136 0)
(216.496 93.8608 0)
(218.933 96.9594 0)
(221.948 100.01 0)
(225.129 103.127 0)
(228.947 106.107 0)
(232.975 109.107 0)
(237.628 111.824 0)
(242.57 114.477 0)
(248.084 116.869 0)
(253.949 119.052 0)
(260.55 120.939 0)
(267.166 122.382 0)
(274.99 123.706 0)
(282.216 124.428 0)
(290.741 124.91 0)
(298.822 124.789 0)
(306.857 124.304 0)
(315.174 123.422 0)
(322.742 122.432 0)
(330.143 121.305 0)
(337.653 119.405 0)
(342.98 116.968 0)
(347.162 114.368 0)
(352.792 112.654 0)
(364.808 110.656 0)
(368.711 117.799 0)
(210 9.9089e-12 0)
(210 5.21993e-12 0)
(210 2.04462e-13 0)
(210 -6.4828e-12 0)
(210 -1.32007e-11 0)
(210 -2.80192e-11 0)
(210 -1.83293e-11 0)
(210 -6.48025e-12 0)
(210 -7.83397e-12 0)
(210 9.07802e-12 0)
(210 6.59696e-12 0)
(210 -6.42958e-13 0)
(210 -9.31245e-10 0)
(210 -7.69754e-08 0)
(210 4.13373e-07 0)
(209.995 0.000611335 0)
(209.892 0.0218589 0)
(209.221 0.217034 0)
(207.623 0.776826 0)
(206.116 1.40083 0)
(205.329 1.7431 0)
(205.335 1.88622 0)
(205.778 1.80997 0)
(206.849 1.48499 0)
(208.002 1.12044 0)
(208.94 1.03319 0)
(209.542 1.07584 0)
(209.832 1.2461 0)
(210.006 1.50154 0)
(210.198 1.80134 0)
(210.432 2.11368 0)
(210.71 2.42203 0)
(211.008 2.73736 0)
(211.293 3.08367 0)
(211.569 3.4676 0)
(211.832 3.88536 0)
(212.061 4.3334 0)
(212.247 4.80855 0)
(212.402 5.30379 0)
(212.531 5.82226 0)
(212.651 6.36839 0)
(212.745 6.95017 0)
(212.832 7.56541 0)
(212.876 8.21588 0)
(212.892 8.89389 0)
(212.902 9.59468 0)
(212.876 10.3249 0)
(212.823 11.0787 0)
(212.741 11.8572 0)
(212.635 12.6599 0)
(212.508 13.4869 0)
(212.362 14.3395 0)
(212.197 15.2193 0)
(212.013 16.1275 0)
(211.808 17.0649 0)
(211.582 18.0326 0)
(211.331 19.0315 0)
(211.058 20.061 0)
(210.766 21.1194 0)
(210.459 22.2056 0)
(210.136 23.32 0)
(209.797 24.464 0)
(209.441 25.6393 0)
(209.069 26.8468 0)
(208.683 28.0873 0)
(208.285 29.361 0)
(207.877 30.6692 0)
(207.462 32.0129 0)
(207.04 33.3942 0)
(206.612 34.8149 0)
(206.181 36.2769 0)
(205.749 37.7819 0)
(205.318 39.3329 0)
(204.889 40.9318 0)
(204.468 42.5799 0)
(204.061 44.2766 0)
(203.671 46.0283 0)
(203.283 47.8443 0)
(202.944 49.7096 0)
(202.617 51.6427 0)
(202.346 53.638 0)
(202.107 55.7039 0)
(201.926 57.8392 0)
(201.802 60.0483 0)
(201.751 62.3328 0)
(201.783 64.6962 0)
(201.905 67.1394 0)
(202.146 69.6659 0)
(202.491 72.275 0)
(203.009 74.9714 0)
(203.638 77.7516 0)
(204.511 80.6174 0)
(205.493 83.561 0)
(206.813 86.5669 0)
(208.246 89.6305 0)
(210.114 92.7287 0)
(212.106 95.902 0)
(214.624 99.0961 0)
(217.287 102.365 0)
(220.545 105.559 0)
(223.998 108.778 0)
(228.104 111.834 0)
(232.474 114.911 0)
(237.463 117.751 0)
(242.857 120.552 0)
(248.842 123.063 0)
(255.393 125.264 0)
(262.596 127.148 0)
(269.958 128.49 0)
(277.954 129.591 0)
(286.207 130.232 0)
(294.435 130.355 0)
(303.492 130.097 0)
(312.81 129.019 0)
(321.156 127.667 0)
(330.427 125.504 0)
(336.636 123.227 0)
(341.591 120.273 0)
(347.235 118.977 0)
(359.642 117.916 0)
(362.918 127.063 0)
(210 5.10156e-12 0)
(210 3.37397e-12 0)
(210 -5.41374e-12 0)
(210 -1.33428e-11 0)
(210 -2.13405e-11 0)
(210 -3.10897e-11 0)
(210 -4.85223e-12 0)
(210 7.63232e-12 0)
(210 5.98115e-12 0)
(210 6.58473e-12 0)
(210 4.41694e-12 0)
(210 2.21496e-12 0)
(210 -3.18877e-10 0)
(210 -3.07527e-08 0)
(210 -1.59052e-06 0)
(209.998 0.00012195 0)
(209.949 0.00823061 0)
(209.507 0.120004 0)
(208.104 0.569481 0)
(206.392 1.22822 0)
(205.324 1.64921 0)
(205.226 1.78622 0)
(205.441 1.78703 0)
(206.367 1.57103 0)
(207.567 1.21385 0)
(208.58 1.09321 0)
(209.222 1.08047 0)
(209.541 1.22611 0)
(209.708 1.4719 0)
(209.873 1.7669 0)
(210.061 2.07768 0)
(210.295 2.3822 0)
(210.562 2.68727 0)
(210.83 3.01872 0)
(211.089 3.38847 0)
(211.34 3.79111 0)
(211.557 4.22399 0)
(211.731 4.68498 0)
(211.869 5.16858 0)
(211.982 5.6764 0)
(212.085 6.21216 0)
(212.167 6.7827 0)
(212.238 7.38635 0)
(212.26 8.02604 0)
(212.272 8.68692 0)
(212.26 9.38216 0)
(212.219 10.0989 0)
(212.148 10.8401 0)
(212.049 11.6049 0)
(211.923 12.3929 0)
(211.776 13.2041 0)
(211.608 14.0398 0)
(211.42 14.9018 0)
(211.212 15.7912 0)
(210.983 16.7088 0)
(210.732 17.6556 0)
(210.457 18.6327 0)
(210.156 19.6398 0)
(209.835 20.6756 0)
(209.495 21.7386 0)
(209.139 22.829 0)
(208.765 23.9479 0)
(208.372 25.0972 0)
(207.961 26.278 0)
(207.534 27.4909 0)
(207.091 28.7365 0)
(206.637 30.0158 0)
(206.172 31.3298 0)
(205.698 32.6804 0)
(205.214 34.0692 0)
(204.724 35.4984 0)
(204.228 36.9697 0)
(203.729 38.4853 0)
(203.229 40.0466 0)
(202.731 41.6565 0)
(202.238 43.3179 0)
(201.753 45.0329 0)
(201.285 46.7978 0)
(200.841 48.6208 0)
(200.39 50.5187 0)
(200.002 52.4626 0)
(199.628 54.4811 0)
(199.31 56.5675 0)
(199.032 58.7286 0)
(198.816 60.9637 0)
(198.667 63.2779 0)
(198.593 65.6731 0)
(198.615 68.1548 0)
(198.724 70.723 0)
(198.976 73.384 0)
(199.323 76.1318 0)
(199.881 78.9754 0)
(200.533 81.9047 0)
(201.486 84.9262 0)
(202.535 88.0344 0)
(203.98 91.2326 0)
(205.535 94.5318 0)
(207.573 97.8883 0)
(209.748 101.314 0)
(212.489 104.713 0)
(215.423 108.155 0)
(218.98 111.53 0)
(222.803 114.966 0)
(227.298 118.239 0)
(232.108 121.472 0)
(237.542 124.467 0)
(243.473 127.301 0)
(249.896 129.658 0)
(257.224 131.926 0)
(264.265 133.586 0)
(272.747 135.135 0)
(280.601 135.979 0)
(289.031 136.57 0)
(298.13 136.661 0)
(306.481 136.38 0)
(315.805 135.513 0)
(323.3 133.995 0)
(329.758 131.416 0)
(336.458 129.356 0)
(349.588 127.593 0)
(353.251 135.615 0)
(210 6.50442e-12 0)
(210 5.31622e-12 0)
(210 -1.05514e-11 0)
(210 -1.7742e-11 0)
(210 -1.48158e-11 0)
(210 -1.00597e-11 0)
(210 1.06804e-11 0)
(210 2.61857e-12 0)
(210 -9.07385e-12 0)
(210 1.87791e-12 0)
(210 5.59866e-12 0)
(210 1.75448e-11 0)
(210 -8.86923e-11 0)
(210 -9.68802e-09 0)
(210 -7.29857e-07 0)
(209.999 4.82155e-06 0)
(209.979 0.00245845 0)
(209.719 0.0573779 0)
(208.592 0.380179 0)
(206.772 1.02031 0)
(205.394 1.50252 0)
(205.143 1.69109 0)
(205.157 1.77037 0)
(205.901 1.65642 0)
(207.106 1.30847 0)
(208.19 1.14878 0)
(208.876 1.08311 0)
(209.238 1.20883 0)
(209.405 1.44251 0)
(209.549 1.72543 0)
(209.69 2.02858 0)
(209.874 2.32841 0)
(210.103 2.62721 0)
(210.351 2.94841 0)
(210.592 3.31007 0)
(210.829 3.70422 0)
(211.033 4.12791 0)
(211.195 4.57874 0)
(211.315 5.05325 0)
(211.413 5.55124 0)
(211.499 6.07671 0)
(211.57 6.63454 0)
(211.621 7.22539 0)
(211.627 7.85012 0)
(211.632 8.49617 0)
(211.6 9.17888 0)
(211.543 9.88104 0)
(211.456 10.6072 0)
(211.339 11.3557 0)
(211.196 12.1261 0)
(211.029 12.9183 0)
(210.84 13.7336 0)
(210.631 14.5739 0)
(210.401 15.441 0)
(210.15 16.3356 0)
(209.876 17.2585 0)
(209.576 18.2108 0)
(209.251 19.1926 0)
(208.902 20.2027 0)
(208.534 21.2396 0)
(208.147 22.303 0)
(207.741 23.3938 0)
(207.316 24.5139 0)
(206.87 25.6643 0)
(206.405 26.8461 0)
(205.923 28.0597 0)
(205.426 29.306 0)
(204.916 30.586 0)
(204.394 31.9015 0)
(203.86 33.254 0)
(203.315 34.6457 0)
(202.761 36.0783 0)
(202.2 37.5541 0)
(201.632 39.0748 0)
(201.062 40.6427 0)
(200.491 42.2599 0)
(199.923 43.9293 0)
(199.36 45.6541 0)
(198.805 47.4377 0)
(198.269 49.2745 0)
(197.761 51.176 0)
(197.244 53.1566 0)
(196.789 55.1923 0)
(196.354 57.3077 0)
(195.974 59.4992 0)
(195.643 61.7733 0)
(195.373 64.1305 0)
(195.181 66.5762 0)
(195.061 69.1106 0)
(195.061 71.7418 0)
(195.143 74.4646 0)
(195.408 77.2929 0)
(195.75 80.2139 0)
(196.358 83.2444 0)
(197.043 86.369 0)
(198.079 89.6025 0)
(199.201 92.9326 0)
(200.764 96.3418 0)
(202.444 99.8269 0)
(204.658 103.355 0)
(207.052 106.974 0)
(210.04 110.612 0)
(213.289 114.325 0)
(217.179 117.962 0)
(221.414 121.617 0)
(226.339 125.031 0)
(231.663 128.366 0)
(237.723 131.521 0)
(244.305 134.433 0)
(251.492 136.847 0)
(259.441 139.099 0)
(267.9 140.796 0)
(276.308 141.857 0)
(285.507 142.674 0)
(294.776 142.963 0)
(302.806 142.938 0)
(311.117 142.067 0)
(317.795 140.175 0)
(323.999 138.932 0)
(338.075 137.368 0)
(341.347 147.09 0)
(210 6.96044e-12 0)
(210 -1.40555e-11 0)
(210 -2.07989e-11 0)
(210 -7.90155e-12 0)
(210 -8.99909e-12 0)
(210 2.62788e-12 0)
(210 5.26152e-12 0)
(210 8.29358e-13 0)
(210 2.52203e-12 0)
(210 2.17213e-11 0)
(210 2.07134e-11 0)
(210 1.95138e-11 0)
(210 -3.03145e-11 0)
(210 -2.5885e-09 0)
(210 -2.4409e-07 0)
(210 -8.81529e-06 0)
(209.993 0.000503517 0)
(209.858 0.0229715 0)
(209.04 0.226641 0)
(207.261 0.790484 0)
(205.587 1.32727 0)
(205.091 1.61211 0)
(204.939 1.73564 0)
(205.453 1.69494 0)
(206.613 1.37763 0)
(207.765 1.18453 0)
(208.509 1.07916 0)
(208.93 1.18441 0)
(209.105 1.39649 0)
(209.231 1.65884 0)
(209.329 1.94805 0)
(209.462 2.24123 0)
(209.647 2.53573 0)
(209.876 2.8485 0)
(210.102 3.20396 0)
(210.326 3.59137 0)
(210.519 4.00721 0)
(210.67 4.4488 0)
(210.773 4.9151 0)
(210.856 5.40433 0)
(210.924 5.92063 0)
(210.981 6.46693 0)
(211.01 7.04532 0)
(211.01 7.65077 0)
(210.996 8.28934 0)
(210.945 8.95605 0)
(210.871 9.64392 0)
(210.766 10.3546 0)
(210.632 11.0864 0)
(210.47 11.839 0)
(210.283 12.6123 0)
(210.073 13.4075 0)
(209.841 14.2269 0)
(209.587 15.072 0)
(209.312 15.9438 0)
(209.014 16.843 0)
(208.69 17.7707 0)
(208.339 18.7272 0)
(207.962 19.7119 0)
(207.563 20.7232 0)
(207.145 21.7603 0)
(206.707 22.8241 0)
(206.247 23.916 0)
(205.766 25.0374 0)
(205.263 26.1893 0)
(204.74 27.3722 0)
(204.2 28.587 0)
(203.644 29.8345 0)
(203.073 31.1163 0)
(202.488 32.434 0)
(201.889 33.7895 0)
(201.277 35.1847 0)
(200.654 36.6215 0)
(200.021 38.1019 0)
(199.381 39.6281 0)
(198.734 41.202 0)
(198.085 42.8263 0)
(197.436 44.5033 0)
(196.791 46.2359 0)
(196.153 48.028 0)
(195.524 49.8826 0)
(194.915 51.7952 0)
(194.335 53.7774 0)
(193.752 55.8416 0)
(193.228 57.9693 0)
(192.734 60.1795 0)
(192.294 62.473 0)
(191.912 64.8554 0)
(191.588 67.3284 0)
(191.357 69.901 0)
(191.191 72.5696 0)
(191.174 75.3504 0)
(191.217 78.2295 0)
(191.487 81.2321 0)
(191.814 84.3355 0)
(192.453 87.5671 0)
(193.159 90.8984 0)
(194.27 94.3415 0)
(195.478 97.8845 0)
(197.179 101.533 0)
(199.028 105.297 0)
(201.425 109.131 0)
(204.066 113.042 0)
(207.309 116.92 0)
(210.873 120.825 0)
(215.125 124.632 0)
(219.755 128.455 0)
(225.084 132.045 0)
(230.924 135.599 0)
(237.494 138.884 0)
(244.43 141.627 0)
(252.579 144.497 0)
(261.056 146.404 0)
(269.722 147.937 0)
(280.551 149.448 0)
(290.291 149.486 0)
(299.88 148.752 0)
(308.23 146.936 0)
(315.328 145.562 0)
(329.475 144.75 0)
(332.579 155.154 0)
(210 -2.93161e-12 0)
(210 -2.01526e-11 0)
(210 -7.7007e-12 0)
(210 -1.26096e-11 0)
(210 -1.15797e-11 0)
(210 4.29551e-13 0)
(210 -2.35116e-12 0)
(210 -7.35902e-13 0)
(210 7.59649e-12 0)
(210 1.17085e-11 0)
(210 7.76998e-12 0)
(210 -2.75165e-12 0)
(210 -1.09528e-11 0)
(210 -6.1206e-10 0)
(210 -6.77146e-08 0)
(210 -4.64367e-06 0)
(209.998 2.00787e-05 0)
(209.938 0.00725968 0)
(209.406 0.117168 0)
(207.821 0.56342 0)
(205.908 1.13202 0)
(205.058 1.53579 0)
(204.777 1.63209 0)
(205.062 1.67418 0)
(206.114 1.44654 0)
(207.316 1.23677 0)
(208.124 1.086 0)
(208.61 1.14943 0)
(208.803 1.33202 0)
(208.912 1.57865 0)
(208.971 1.86033 0)
(209.055 2.15643 0)
(209.19 2.45712 0)
(209.398 2.76846 0)
(209.607 3.12055 0)
(209.818 3.50251 0)
(210.001 3.9108 0)
(210.141 4.34254 0)
(210.228 4.79866 0)
(210.295 5.27645 0)
(210.343 5.78059 0)
(210.384 6.31316 0)
(210.393 6.87714 0)
(210.389 7.46251 0)
(210.351 8.08945 0)
(210.283 8.73895 0)
(210.19 9.41093 0)
(210.068 10.1041 0)
(209.916 10.8172 0)
(209.735 11.5497 0)
(209.529 12.3016 0)
(209.299 13.0744 0)
(209.046 13.8701 0)
(208.77 14.6908 0)
(208.472 15.5375 0)
(208.151 16.4107 0)
(207.804 17.3114 0)
(207.428 18.2403 0)
(207.026 19.1969 0)
(206.6 20.1799 0)
(206.152 21.1882 0)
(205.684 22.2222 0)
(205.194 23.2832 0)
(204.68 24.3727 0)
(204.143 25.4916 0)
(203.584 26.6405 0)
(203.006 27.8203 0)
(202.408 29.0316 0)
(201.794 30.2759 0)
(201.163 31.5547 0)
(200.515 32.8701 0)
(199.851 34.2235 0)
(199.173 35.6173 0)
(198.48 37.053 0)
(197.775 38.5331 0)
(197.06 40.0595 0)
(196.336 41.6349 0)
(195.606 43.2615 0)
(194.873 44.9424 0)
(194.139 46.6801 0)
(193.409 48.4782 0)
(192.687 50.3405 0)
(191.973 52.2709 0)
(191.277 54.2669 0)
(190.611 56.3388 0)
(189.946 58.4972 0)
(189.334 60.7327 0)
(188.761 63.0557 0)
(188.237 65.4719 0)
(187.784 67.989 0)
(187.383 70.6037 0)
(187.102 73.3316 0)
(186.871 76.1589 0)
(186.832 79.1154 0)
(186.833 82.1734 0)
(187.11 85.3722 0)
(187.432 88.6765 0)
(188.111 92.1263 0)
(188.856 95.697 0)
(190.044 99.4138 0)
(191.347 103.251 0)
(193.165 107.188 0)
(195.199 111.214 0)
(197.798 115.293 0)
(200.722 119.468 0)
(204.289 123.663 0)
(208.241 127.948 0)
(212.977 132.101 0)
(218.134 136.188 0)
(224.016 140.059 0)
(230.58 143.821 0)
(237.715 147.033 0)
(245.842 150.132 0)
(253.935 152.418 0)
(263.25 154.744 0)
(273.284 156.551 0)
(281.896 157.12 0)
(290.555 156.581 0)
(297.786 156.114 0)
(312.142 155.461 0)
(314.168 166.354 0)
(210 -6.94588e-12 0)
(210 -9.41633e-12 0)
(210 -7.98214e-12 0)
(210 -1.79732e-11 0)
(210 2.39808e-12 0)
(210 1.23277e-12 0)
(210 -8.7742e-12 0)