/*--------------------------------*- C++ -*----------------------------------*\
| =========                 |                                                 |
| \\      /  F ield         | OpenFOAM: The Open Source CFD Toolbox           |
|  \\    /   O peration     | Version:  2412                                  |
|   \\  /    A nd           | Website:  www.openfoam.com                      |
|    \\/     M anipulation  |                                                 |
\*---------------------------------------------------------------------------*/
FoamFile
{
    version     2.0;
    format      ascii;
    arch        "LSB;label=32;scalar=64";
    class       volScalarField;
    location    "0.085";
    object      p;
}
// * * * * * * * * * * * * * * * * * * * * * * * * * * * * * * * * * * * * * //

dimensions      [1 -1 -2 0 0 0 0];

internalField   nonuniform List<scalar> 
78650
(
3200.52
2922.24
2910.08
2904.39
2898.57
2891.69
2883.31
2873
2861.36
2849.96
2839.53
2830.53
2823.03
2816.97
2812.23
2808.48
2805.33
2802.53
2799.78
2796.83
2793.56
2790
2786.32
2782.71
2779.34
2776.36
2773.91
2772.1
2770.9
2770.14
2769.62
2769.15
2768.64
2768.02
2767.3
2766.47
2765.52
2764.39
2763.07
2761.52
2759.78
2757.89
2755.89
2753.86
2751.83
2749.83
2747.9
2746.05
2744.32
2742.7
2741.2
2739.8
2738.52
2737.33
2736.22
2735.19
2734.22
2733.3
2732.44
2731.6
2730.78
2729.94
2729.06
2728.1
2727.05
2725.87
2724.52
2722.96
2721.16
2719.06
2716.6
2713.73
2710.38
2706.5
2702
2696.8
2690.81
2683.92
2676.04
2667.07
2656.89
2645.36
2632.32
2617.64
2601.16
2582.78
2562.29
2539.59
2514.41
2486.72
2456.22
2423.12
2387.02
2348.32
2306.07
2261.45
2213.57
2162.99
2110.11
2053.72
1995.94
1936.19
1875.16
1816.38
1755.97
1696.71
1640.23
1583.47
1529.03
1478.55
1431.35
1388.08
1346.91
1308.83
1277.87
1249.55
1223.69
1198.53
1176.26
1157.22
1118.83
3165.35
2915.15
2907.92
2903.89
2898.8
2892.34
2884.23
2874.17
2862.7
2851.35
2840.83
2831.66
2823.95
2817.72
2812.87
2809.1
2806.05
2803.42
2800.89
2798.19
2795.14
2791.76
2788.2
2784.66
2781.31
2778.29
2775.74
2773.81
2772.52
2771.72
2771.23
2770.84
2770.44
2769.95
2769.36
2768.68
2767.91
2767
2765.91
2764.62
2763.11
2761.44
2759.66
2757.82
2755.98
2754.16
2752.4
2750.74
2749.18
2747.75
2746.44
2745.25
2744.18
2743.22
2742.34
2741.56
2740.85
2740.21
2739.63
2739.11
2738.62
2738.13
2737.63
2737.08
2736.46
2735.74
2734.9
2733.89
2732.67
2731.2
2729.43
2727.3
2724.76
2721.75
2718.21
2714.05
2709.19
2703.52
2696.97
2689.43
2680.81
2670.97
2659.77
2647.08
2632.72
2616.57
2598.43
2578.18
2555.58
2530.61
2503.05
2472.94
2439.87
2404.02
2364.72
2322.98
2277.72
2230.04
2179.29
2125.31
2068.26
2009.74
1949.64
1889.75
1829.98
1767.59
1708.61
1650.15
1593.69
1541.73
1492.05
1444.25
1399.42
1355.25
1315.45
1281.8
1253.59
1227.97
1203.34
1180.65
1136.73
3130.04
2908.88
2904.97
2902.83
2899.05
2893.39
2885.77
2876.03
2864.77
2853.55
2843.08
2833.81
2825.91
2819.45
2814.39
2810.44
2807.33
2804.75
2802.37
2799.85
2796.99
2793.77
2790.31
2786.84
2783.51
2780.45
2777.82
2775.76
2774.34
2773.48
2772.99
2772.65
2772.33
2771.95
2771.49
2770.94
2770.33
2769.62
2768.76
2767.7
2766.45
2765.01
2763.45
2761.82
2760.16
2758.54
2756.96
2755.48
2754.11
2752.87
2751.75
2750.77
2749.91
2749.18
2748.54
2748
2747.56
2747.2
2746.91
2746.7
2746.54
2746.4
2746.27
2746.13
2745.94
2745.68
2745.34
2744.86
2744.21
2743.36
2742.26
2740.86
2739.1
2736.93
2734.3
2731.12
2727.33
2722.83
2717.52
2711.33
2704.15
2695.87
2686.36
2675.48
2663.06
2648.98
2633.07
2615.23
2595.22
2572.96
2548.18
2520.85
2490.63
2457.58
2421.26
2382.35
2339.95
2295.03
2246.35
2194.82
2140.48
2083.56
2025.11
1962.85
1903.12
1839
1777.29
1717.45
1656.65
1597.9
1544.35
1492.29
1445.4
1400.22
1354.7
1313.72
1278.37
1246.92
1220.41
1198.36
1154.23
3095.62
2901.76
2901.61
2901.29
2899.39
2895.1
2888.26
2878.89
2867.81
2856.65
2846.19
2836.85
2828.76
2822.04
2816.67
2812.45
2809.18
2806.55
2804.23
2801.85
2799.17
2796.08
2792.73
2789.32
2786.01
2782.93
2780.21
2778.01
2776.44
2775.46
2774.92
2774.6
2774.34
2774.05
2773.69
2773.27
2772.8
2772.26
2771.62
2770.8
2769.8
2768.61
2767.28
2765.86
2764.41
2762.98
2761.6
2760.3
2759.11
2758.06
2757.14
2756.36
2755.71
2755.19
2754.79
2754.5
2754.31
2754.22
2754.21
2754.3
2754.45
2754.66
2754.89
2755.13
2755.36
2755.54
2755.66
2755.7
2755.6
2755.34
2754.88
2754.18
2753.15
2751.8
2750.04
2747.81
2745.05
2741.67
2737.58
2732.7
2726.95
2720.21
2712.38
2703.32
2692.88
2680.93
2667.3
2651.86
2634.36
2614.71
2592.66
2568.18
2540.99
2511.11
2478.13
2442.42
2403.2
2361.25
2315.47
2267.01
2215.11
2159.61
2102.85
2041.63
1979.89
1917.35
1852.05
1790.07
1727.79
1664.25
1605.49
1548.8
1493.07
1444.65
1397.15
1352.95
1312.61
1274.39
1241.05
1212.92
1157.24
3059.78
2895
2897.81
2899.37
2899.24
2897.03
2891.54
2882.76
2871.83
2860.57
2850.05
2840.59
2832.32
2825.38
2819.7
2815.15
2811.62
2808.86
2806.52
2804.22
2801.65
2798.71
2795.46
2792.1
2788.81
2785.71
2782.91
2780.57
2778.83
2777.71
2777.07
2776.73
2776.5
2776.28
2776.01
2775.7
2775.35
2774.97
2774.52
2773.93
2773.18
2772.24
2771.16
2769.97
2768.74
2767.51
2766.32
2765.21
2764.22
2763.36
2762.63
2762.05
2761.62
2761.32
2761.15
2761.11
2761.17
2761.34
2761.62
2761.99
2762.46
2763
2763.59
2764.21
2764.84
2765.46
2766.04
2766.57
2767.01
2767.31
2767.46
2767.43
2767.13
2766.56
2765.63
2764.31
2762.53
2760.2
2757.27
2753.62
2749.2
2743.9
2737.63
2730.25
2721.61
2711.6
2700.04
2686.83
2671.77
2654.74
2635.51
2613.99
2589.88
2563.11
2533.34
2500.72
2464.62
2425.57
2382.7
2337.11
2287.77
2235.49
2179.73
2121.94
2059.64
1998.28
1932.85
1865.84
1802.52
1737.52
1673.82
1615.82
1555.6
1499.47
1448.53
1401.44
1358.69
1318.34
1282.39
1251.16
1189.06
3024.77
2886.48
2893.73
2897.88
2899.28
2898.5
2894.92
2887.31
2876.7
2865.3
2854.61
2845
2836.56
2829.39
2823.39
2818.5
2814.67
2811.7
2809.26
2806.96
2804.49
2801.66
2798.52
2795.22
2791.95
2788.82
2785.96
2783.5
2781.57
2780.25
2779.47
2779.05
2778.82
2778.64
2778.43
2778.22
2777.98
2777.75
2777.47
2777.1
2776.58
2775.9
2775.08
2774.14
2773.14
2772.12
2771.14
2770.23
2769.43
2768.76
2768.24
2767.86
2767.64
2767.57
2767.62
2767.82
2768.13
2768.56
2769.11
2769.77
2770.54
2771.4
2772.34
2773.32
2774.34
2775.38
2776.41
2777.41
2778.36
2779.22
2779.96
2780.54
2780.94
2781.09
2780.98
2780.53
2779.7
2778.39
2776.57
2774.12
2771
2767.11
2762.36
2756.65
2749.82
2741.76
2732.32
2721.39
2708.76
2694.3
2677.74
2658.95
2637.69
2613.93
2587.36
2557.98
2525.27
2489.6
2450.38
2408.25
2362.07
2312.82
2259.65
2202.95
2144.05
2080.94
2017.62
1949.25
1882.52
1815.97
1748.25
1684.11
1620.99
1557.59
1499.44
1443.84
1393.4
1348.19
1309.63
1277.08
1213.37
2989.68
2875.91
2887.86
2895.29
2898.84
2899.31
2897.55
2891.66
2881.86
2870.56
2859.73
2849.94
2841.32
2833.93
2827.66
2822.45
2818.31
2815.08
2812.46
2810.09
2807.67
2804.95
2801.9
2798.66
2795.4
2792.25
2789.33
2786.75
2784.65
2783.12
2782.15
2781.61
2781.32
2781.15
2780.99
2780.84
2780.7
2780.6
2780.48
2780.3
2780.01
2779.59
2779.03
2778.34
2777.59
2776.81
2776.04
2775.34
2774.74
2774.28
2773.95
2773.78
2773.77
2773.92
2774.21
2774.64
2775.2
2775.89
2776.71
2777.66
2778.73
2779.9
2781.17
2782.52
2783.92
2785.37
2786.83
2788.29
2789.74
2791.13
2792.44
2793.65
2794.7
2795.56
2796.19
2796.56
2796.64
2796.3
2795.53
2794.23
2792.32
2789.74
2786.39
2782.21
2777.05
2770.79
2763.29
2754.43
2744.03
2731.97
2718.02
2702.09
2683.95
2663.49
2640.38
2614.48
2585.38
2553.31
2517.72
2478.98
2436.1
2389.85
2339.41
2285.83
2228.64
2168.14
2105.72
2039.54
1970.31
1903.03
1833.31
1763.12
1699.04
1633.4
1569.95
1511.14
1454.07
1402.44
1355.18
1313.42
1232.62
2955.54
2862.63
2878.32
2890.3
2897.61
2899.34
2898.87
2895.01
2886.57
2875.75
2864.87
2854.96
2846.22
2838.7
2832.3
2826.88
2822.45
2818.92
2816.06
2813.59
2811.18
2808.54
2805.57
2802.37
2799.11
2795.93
2792.96
2790.28
2788.02
2786.28
2785.09
2784.38
2783.99
2783.79
2783.65
2783.55
2783.49
2783.5
2783.54
2783.53
2783.45
2783.28
2782.98
2782.56
2782.07
2781.53
2781
2780.52
2780.13
2779.87
2779.76
2779.79
2780.01
2780.37
2780.88
2781.54
2782.35
2783.3
2784.38
2785.61
2786.96
2788.45
2790.05
2791.74
2793.51
2795.34
2797.22
2799.13
2801.05
2802.95
2804.81
2806.6
2808.28
2809.83
2811.2
2812.35
2813.24
2813.84
2814.07
2813.87
2813.16
2811.88
2809.9
2807.22
2803.68
2799.2
2793.62
2786.83
2778.68
2769.04
2757.7
2744.52
2729.23
2711.7
2691.6
2668.87
2643.16
2614.59
2582.61
2547.38
2508.21
2465.73
2419.03
2368.82
2314.34
2256.33
2194.61
2130.64
2061.89
1991.15
1920.6
1847.34
1776.13
1705.6
1635.66
1571.58
1509.14
1452.73
1404.05
1363.94
1283.92
2923.17
2845.27
2862.96
2880.78
2893.54
2898.63
2899.3
2896.92
2889.95
2879.91
2869.15
2859.23
2850.5
2843.03
2836.69
2831.24
2826.71
2822.98
2819.92
2817.31
2814.85
2812.25
2809.36
2806.19
2802.92
2799.74
2796.74
2794.01
2791.62
2789.68
2788.27
2787.37
2786.84
2786.57
2786.42
2786.35
2786.34
2786.46
2786.64
2786.78
2786.91
2786.96
2786.92
2786.77
2786.54
2786.27
2785.98
2785.74
2785.57
2785.52
2785.63
2785.88
2786.3
2786.88
2787.63
2788.53
2789.58
2790.78
2792.13
2793.62
2795.27
2797.06
2798.97
2801
2803.13
2805.35
2807.64
2809.98
2812.35
2814.74
2817.13
2819.49
2821.78
2823.97
2826.03
2827.94
2829.66
2831.12
2832.27
2833.07
2833.45
2833.4
2832.72
2831.44
2829.38
2826.53
2822.7
2817.82
2811.74
2804.33
2795.4
2784.8
2772.32
2757.82
2741.03
2721.88
2699.99
2675.3
2647.23
2615.89
2580.76
2542.24
2499.49
2452.84
2401.5
2346.65
2287.86
2224.99
2159.39
2088.61
2018.15
1943.9
1868.75
1795.44
1720.87
1651.64
1582.09
1516.12
1452.65
1398.96
1296.71
2896
2824.72
2841.54
2864.42
2884.79
2895.65
2898.31
2897.47
2892.01
2882.97
2872.27
2862.2
2853.48
2846.12
2839.93
2834.67
2830.3
2826.67
2823.63
2820.98
2818.5
2815.91
2813.05
2809.9
2806.64
2803.46
2800.48
2797.73
2795.27
2793.2
2791.61
2790.51
2789.82
2789.45
2789.26
2789.2
2789.23
2789.44
2789.74
2790.04
2790.35
2790.61
2790.81
2790.93
2790.97
2790.97
2790.95
2790.95
2791.02
2791.2
2791.52
2791.99
2792.63
2793.43
2794.41
2795.54
2796.84
2798.29
2799.89
2801.66
2803.58
2805.66
2807.88
2810.24
2812.72
2815.3
2817.97
2820.73
2823.54
2826.4
2829.29
2832.18
2835.04
2837.85
2840.58
2843.2
2845.68
2847.98
2850.05
2851.83
2853.25
2854.27
2854.84
2854.94
2854.36
2853.11
2851.02
2848
2843.93
2838.69
2832.11
2824.07
2814.32
2802.74
2789.07
2773.16
2754.66
2733.43
2709.02
2681.54
2650.57
2616.27
2577.79
2535.29
2488.11
2437.04
2381.26
2321.3
2256.92
2189.04
2117.28
2042.96
1964.5
1888.74
1810.4
1733.94
1660.78
1595.01
1534.56
1480.06
1369.77
2878.03
2806.41
2818.79
2840.76
2867.4
2886.97
2895.58
2896.18
2892.69
2884.29
2874.07
2864.11
2855.33
2847.86
2841.64
2836.55
2832.47
2829.15
2826.35
2823.89
2821.6
2819.2
2816.49
2813.45
2810.25
2807.13
2804.18
2801.44
2798.95
2796.8
2795.06
2793.78
2792.92
2792.42
2792.17
2792.08
2792.13
2792.41
2792.83
2793.27
2793.76
2794.23
2794.65
2795.02
2795.33
2795.6
2795.86
2796.12
2796.44
2796.85
2797.4
2798.1
2798.96
2799.99
2801.2
2802.57
2804.1
2805.8
2807.66
2809.69
2811.89
2814.26
2816.78
2819.45
2822.27
2825.2
2828.26
2831.41
2834.65
2837.96
2841.32
2844.73
2848.14
2851.54
2854.91
2858.2
2861.41
2864.48
2867.4
2870.09
2872.51
2874.62
2876.31
2877.57
2878.34
2878.57
2878.07
2876.79
2874.59
2871.35
2866.97
2861.3
2854.14
2845.36
2834.71
2822.04
2807.02
2789.53
2769.16
2745.92
2719.26
2689.15
2654.87
2616.65
2573.92
2526.98
2474.93
2418.7
2357.58
2291.96
2222.25
2149.49
2072.4
1991.26
1911.25
1823.08
1742.39
1662.36
1590.54
1531.27
1416.69
2869.41
2798.86
2803.34
2816.19
2841.54
2868.64
2886.2
2891.72
2890.74
2884.15
2874.37
2864.43
2855.7
2848.32
2842.22
2837.22
2833.22
2829.98
2827.33
2825.08
2823.08
2821.1
2818.86
2816.25
2813.38
2810.46
2807.63
2804.95
2802.47
2800.3
2798.49
2797.08
2796.08
2795.44
2795.11
2794.98
2795.02
2795.35
2795.87
2796.46
2797.11
2797.78
2798.42
2799.03
2799.6
2800.14
2800.67
2801.21
2801.79
2802.45
2803.23
2804.16
2805.25
2806.51
2807.95
2809.55
2811.33
2813.27
2815.39
2817.67
2820.14
2822.78
2825.59
2828.57
2831.71
2834.98
2838.39
2841.92
2845.57
2849.3
2853.12
2857.01
2860.95
2864.9
2868.86
2872.79
2876.68
2880.5
2884.21
2887.77
2891.13
2894.23
2897.04
2899.51
2901.54
2903.09
2904.09
2904.48
2904.12
2902.85
2900.59
2897.18
2892.47
2886.32
2878.53
2868.93
2857.22
2843.26
2826.67
2807.38
2784.83
2758.97
2729.29
2695.95
2658.21
2615.97
2568.56
2516.72
2459.54
2397.52
2330.21
2258.02
2183.3
2103.13
2023.9
1937.31
1851.19
1770.69
1685.99
1611.59
1469.69
2865.97
2799.03
2797.16
2799.31
2814.17
2840.91
2867.3
2881.6
2884.62
2881.61
2873.28
2863.58
2854.9
2847.59
2841.6
2836.75
2832.92
2829.9
2827.44
2825.39
2823.59
2821.85
2820.02
2818
2815.72
2813.27
2810.73
2808.21
2805.82
2803.67
2801.83
2800.35
2799.24
2798.48
2798.05
2797.87
2797.89
2798.23
2798.84
2799.56
2800.38
2801.24
2802.09
2802.93
2803.74
2804.55
2805.34
2806.16
2807.01
2807.93
2808.96
2810.13
2811.46
2812.96
2814.62
2816.47
2818.48
2820.67
2823.03
2825.57
2828.3
2831.21
2834.31
2837.58
2841.03
2844.63
2848.39
2852.29
2856.31
2860.46
2864.72
2869.06
2873.49
2877.98
2882.5
2887.04
2891.57
2896.08
2900.53
2904.89
2909.12
2913.17
2916.99
2920.54
2923.76
2926.61
2928.99
2930.82
2932.02
2932.55
2932.29
2931.01
2928.66
2924.99
2919.95
2913.3
2904.83
2894.36
2881.54
2866.23
2847.88
2826.46
2801.47
2772.91
2739.97
2702.55
2660.2
2613.2
2560.52
2502.57
2438.61
2369.78
2295.88
2217.55
2131.25
2048.41
1953.3
1867.74
1783.42
1712.96
1572.95
2864.13
2801.17
2796.13
2792.83
2797.17
2813.62
2840.18
2863.1
2873.25
2874.15
2869.83
2861.53
2853.08
2845.87
2840.08
2835.51
2831.93
2829.13
2826.85
2824.95
2823.29
2821.73
2820.17
2818.55
2816.87
2815.04
2813.04
2810.9
2808.75
2806.72
2804.94
2803.47
2802.31
2801.48
2800.97
2800.72
2800.72
2801.04
2801.72
2802.56
2803.55
2804.6
2805.66
2806.72
2807.77
2808.82
2809.88
2810.96
2812.08
2813.27
2814.55
2815.97
2817.55
2819.28
2821.18
2823.26
2825.52
2827.95
2830.55
2833.34
2836.32
2839.5
2842.87
2846.43
2850.17
2854.08
2858.17
2862.41
2866.8
2871.34
2876
2880.78
2885.67
2890.65
2895.7
2900.8
2905.93
2911.09
2916.23
2921.35
2926.39
2931.32
2936.09
2940.66
2945
2949.04
2952.74
2956.02
2958.79
2960.95
2962.42
2963.13
2963.06
2961.74
2959.29
2955.35
2949.87
2942.61
2933.29
2921.72
2907.45
2890.42
2870.1
2846.36
2818.49
2786.47
2749.75
2708.15
2660.82
2608.2
2549.34
2485.09
2414.24
2337.99
2257.15
2169.44
2077.84
1978.51
1880.34
1791.87
1628.43
2861.45
2804.79
2798.22
2792.16
2791.2
2796.49
2813.57
2837.65
2855.68
2862.14
2861.66
2856.74
2849.48
2842.67
2837.17
2832.95
2829.73
2827.26
2825.25
2823.6
2822.21
2820.97
2819.78
2818.52
2817.22
2815.9
2814.51
2812.92
2811.15
2809.35
2807.71
2806.31
2805.18
2804.34
2803.78
2803.49
2803.45
2803.77
2804.48
2805.43
2806.57
2807.81
2809.08
2810.35
2811.63
2812.92
2814.23
2815.57
2816.96
2818.41
2819.96
2821.64
2823.46
2825.44
2827.59
2829.9
2832.4
2835.07
2837.92
2840.95
2844.18
2847.61
2851.24
2855.08
2859.1
2863.32
2867.72
2872.29
2877.03
2881.93
2886.98
2892.18
2897.5
2902.95
2908.5
2914.13
2919.83
2925.58
2931.37
2937.18
2942.97
2948.71
2954.36
2959.88
2965.23
2970.37
2975.25
2979.82
2983.99
2987.71
2990.88
2993.35
2995.09
2995.98
2996.06
2994.73
2992.18
2987.98
2982.05
2974.12
2963.86
2951.12
2935.34
2916.37
2893.62
2867.01
2835.78
2799.64
2757.99
2710.93
2657.39
2598.04
2531.76
2459.62
2381.14
2296.23
2207.15
2114.66
2016.06
1927.79
1758.44
2856.87
2808.47
2802.25
2793.83
2790.4
2790.63
2796.93
2813.03
2832.59
2845.31
2849.73
2848.79
2844.14
2838.35
2833.28
2829.44
2826.62
2824.54
2822.91
2821.58
2820.5
2819.61
2818.8
2818
2817.09
2816.07
2815.11
2814.1
2812.84
2811.4
2809.98
2808.75
2807.74
2806.97
2806.44
2806.14
2806.09
2806.4
2807.12
2808.16
2809.45
2810.87
2812.35
2813.84
2815.35
2816.86
2818.41
2820
2821.64
2823.36
2825.17
2827.11
2829.19
2831.42
2833.8
2836.36
2839.1
2842
2845.09
2848.37
2851.84
2855.52
2859.4
2863.49
2867.79
2872.29
2876.99
2881.87
2886.94
2892.19
2897.6
2903.17
2908.9
2914.78
2920.79
2926.91
2933.13
2939.44
2945.83
2952.28
2958.76
2965.25
2971.7
2978.09
2984.39
2990.55
2996.53
3002.3
3007.78
3012.92
3017.63
3021.85
3025.47
3028.32
3030.37
3031.49
3031.67
3030.33
3027.57
3023.01
3016.48
3007.74
2996.31
2982.03
2964.31
2943.01
2917.33
2887.02
2851.49
2810.52
2763.14
2709.53
2648.5
2580.89
2505.21
2422.08
2331.68
2236.32
2131.35
2038.64
1870.62
2850.87
2810.98
2806.62
2797.58
2791.77
2790.12
2790.92
2797.17
2810.38
2824.66
2833.97
2837.53
2836.68
2833.04
2828.59
2825.03
2822.38
2820.59
2819.41
2818.53
2817.87
2817.33
2816.98
2816.66
2816.29
2815.76
2815.2
2814.6
2813.86
2812.83
2811.7
2810.69
2809.87
2809.25
2808.82
2808.59
2808.56
2808.89
2809.62
2810.74
2812.15
2813.75
2815.43
2817.15
2818.87
2820.61
2822.39
2824.22
2826.11
2828.08
2830.15
2832.34
2834.67
2837.16
2839.79
2842.59
2845.57
2848.71
2852.04
2855.55
2859.26
2863.18
2867.31
2871.65
2876.21
2880.98
2885.96
2891.14
2896.52
2902.09
2907.84
2913.78
2919.89
2926.17
2932.6
2939.18
2945.89
2952.72
2959.66
2966.7
2973.81
2980.98
2988.18
2995.37
3002.52
3009.6
3016.59
3023.44
3030.1
3036.51
3042.62
3048.36
3053.62
3058.35
3062.44
3065.7
3068.1
3069.46
3069.75
3068.41
3065.45
3060.48
3053.19
3043.41
3030.57
3014.52
2994.5
2970.29
2941.17
2906.78
2866.26
2819.45
2765.3
2704.32
2635.15
2558.34
2472.41
2377.79
2276.66
2172.77
1995.52
2844.68
2812.24
2810.11
2802.38
2795.07
2791.33
2790.41
2790.92
2795.05
2804.27
2815.07
2822.95
2826.62
2826.31
2823.68
2820.67
2818.07
2816.37
2815.47
2815.01
2814.79
2814.68
2814.78
2814.94
2815.08
2815.07
2814.95
2814.66
2814.25
2813.66
2812.88
2812.13
2811.55
2811.14
2810.89
2810.77
2810.84
2811.21
2811.97
2813.15
2814.68
2816.45
2818.34
2820.27
2822.22
2824.19
2826.19
2828.24
2830.37
2832.58
2834.9
2837.34
2839.93
2842.66
2845.55
2848.59
2851.8
2855.19
2858.74
2862.49
2866.43
2870.58
2874.94
2879.53
2884.34
2889.37
2894.61
2900.07
2905.73
2911.61
2917.68
2923.95
2930.41
2937.06
2943.89
2950.89
2958.04
2965.34
2972.78
2980.36
2988.05
2995.84
3003.7
3011.62
3019.55
3027.47
3035.37
3043.2
3050.94
3058.52
3065.91
3073.04
3079.83
3086.22
3092.1
3097.41
3102.03
3105.73
3108.46
3110.04
3110.42
3108.99
3105.69
3100.17
3092.02
3081.05
3066.55
3048.28
3025.38
2997.41
2963.56
2923.51
2876.22
2821.63
2758.47
2687.37
2606.32
2518.25
2418.68
2318.66
2152.22
2839.11
2812.84
2812.48
2806.86
2799.46
2794.08
2791.11
2789.48
2787.98
2789.39
2796.08
2805.27
2813.44
2817.33
2817.73
2816.4
2814.2
2812.46
2811.47
2811.18
2811.24
2811.53
2812.05
2812.66
2813.27
2813.72
2814.07
2814.21
2814.14
2813.93
2813.55
2813.09
2812.77
2812.61
2812.58
2812.66
2812.87
2813.32
2814.14
2815.39
2817.04
2818.97
2821.05
2823.2
2825.38
2827.57
2829.78
2832.06
2834.41
2836.85
2839.4
2842.09
2844.92
2847.91
2851.04
2854.33
2857.78
2861.39
2865.18
2869.15
2873.32
2877.69
2882.28
2887.1
2892.15
2897.42
2902.92
2908.63
2914.57
2920.73
2927.1
2933.68
2940.47
2947.46
2954.65
2962.04
2969.6
2977.33
2985.24
2993.3
3001.52
3009.88
3018.35
3026.91
3035.55
3044.24
3052.95
3061.67
3070.36
3078.98
3087.5
3095.87
3104.02
3111.89
3119.4
3126.49
3133.05
3138.98
3144.16
3148.33
3151.44
3153.25
3153.72
3152.17
3148.43
3142.15
3132.77
3120.05
3103.14
3081.63
3054.71
3021.85
2982.02
2934.95
2879.49
2815.02
2739.6
2654.66
2555.32
2451.8
2292.1
2834.37
2813.32
2813.96
2810.31
2803.7
2797.59
2792.96
2789.61
2784.82
2781.22
2781.67
2787.44
2797.13
2805.69
2810.13
2811.26
2810.58
2809.34
2808.16
2807.77
2807.9
2808.44
2809.36
2810.38
2811.35
2812.18
2812.93
2813.52
2813.82
2813.88
2813.81
2813.67
2813.61
2813.71
2813.94
2814.24
2814.63
2815.22
2816.14
2817.48
2819.24
2821.32
2823.59
2825.96
2828.35
2830.76
2833.19
2835.68
2838.25
2840.91
2843.69
2846.6
2849.67
2852.9
2856.28
2859.8
2863.49
2867.33
2871.35
2875.54
2879.93
2884.52
2889.33
2894.37
2899.64
2905.14
2910.88
2916.84
2923.03
2929.45
2936.1
2942.96
2950.05
2957.36
2964.88
2972.62
2980.55
2988.68
2997
3005.51
3014.2
3023.06
3032.07
3041.22
3050.49
3059.85
3069.3
3078.81
3088.35
3097.9
3107.43
3116.9
3126.26
3135.46
3144.43
3153.11
3161.41
3169.28
3176.57
3183.16
3188.94
3193.6
3197.08
3199.1
3199.58
3197.76
3193.42
3186.15
3175.32
3160.54
3140.94
3115.9
3084.33
3045.73
2998.75
2942.6
2876.27
2798.59
2708.83
2606.57
2459.71
2830.25
2813.73
2815.09
2812.84
2807.27
2801.08
2795.44
2790.14
2783.68
2777.1
2773.01
2773.71
2780.32
2790.9
2800.01
2804.78
2806.58
2806.35
2805.39
2804.93
2805.05
2805.72
2806.92
2808.26
2809.48
2810.56
2811.56
2812.45
2813.11
2813.5
2813.71
2813.88
2814.12
2814.49
2814.98
2815.52
2816.13
2816.89
2817.94
2819.39
2821.27
2823.51
2825.96
2828.53
2831.14
2833.77
2836.42
2839.12
2841.89
2844.76
2847.75
2850.89
2854.18
2857.64
2861.26
2865.02
2868.93
2873
2877.24
2881.65
2886.24
2891.05
2896.07
2901.32
2906.8
2912.52
2918.48
2924.67
2931.1
2937.76
2944.66
2951.79
2959.16
2966.75
2974.58
2982.63
2990.9
2999.39
3008.08
3016.99
3026.11
3035.42
3044.92
3054.59
3064.42
3074.39
3084.49
3094.69
3105
3115.37
3125.79
3136.22
3146.65
3157
3167.25
3177.32
3187.17
3196.73
3205.9
3214.59
3222.66
3229.98
3236.41
3241.58
3245.43
3247.66
3248.14
3245.92
3240.83
3232.13
3219.18
3201.18
3177.15
3146.38
3107.48
3059.76
3001.29
2929.83
2846.23
2745.56
2610.59
2826.7
2814.08
2816.08
2814.73
2810.2
2804.19
2797.95
2791.06
2783.24
2775.03
2768.11
2764.77
2766.74
2775.22
2786.94
2796.07
2801.37
2803.26
2802.95
2802.66
2802.9
2803.75
2805.05
2806.54
2807.89
2809.08
2810.2
2811.3
2812.27
2812.99
2813.49
2813.92
2814.4
2815.03
2815.77
2816.56
2817.39
2818.36
2819.57
2821.16
2823.17
2825.55
2828.19
2830.96
2833.77
2836.61
2839.47
2842.37
2845.35
2848.42
2851.61
2854.96
2858.47
2862.15
2865.99
2869.98
2874.12
2878.41
2882.86
2887.48
2892.28
2897.28
2902.51
2907.96
2913.64
2919.57
2925.74
2932.14
2938.79
2945.68
2952.82
2960.19
2967.8
2975.66
2983.76
2992.1
3000.68
3009.49
3018.52
3027.79
3037.28
3047
3056.93
3067.06
3077.38
3087.88
3098.55
3109.37
3120.33
3131.42
3142.61
3153.9
3165.24
3176.61
3187.96
3199.25
3210.44
3221.47
3232.28
3242.8
3252.89
3262.48
3271.41
3279.51
3286.65
3292.36
3296.61
3298.95
3299.3
3296.29
3289.94
3279.02
3263.09
3240.86
3211.05
3172.79
3123.33
3061.07
2986.04
2892.44
2767.55
2823.76
2814.48
2817.02
2816.27
2812.69
2806.83
2799.98
2791.89
2783.02
2773.85
2765.22
2759.33
2757.58
2761.61
2772.38
2784.85
2794.22
2799.08
2800.4
2800.88
2801.6
2802.51
2803.8
2805.29
2806.66
2807.87
2809.05
2810.26
2811.4
2812.36
2813.12
2813.8
2814.54
2815.41
2816.39
2817.41
2818.47
2819.64
2821.04
2822.79
2824.95
2827.49
2830.3
2833.26
2836.27
2839.3
2842.36
2845.46
2848.63
2851.9
2855.29
2858.83
2862.55
2866.44
2870.49
2874.7
2879.05
2883.55
2888.2
2893.02
2898.02
2903.22
2908.63
2914.28
2920.16
2926.28
2932.64
2939.25
2946.1
2953.2
2960.54
2968.14
2975.98
2984.08
2992.43
3001.03
3009.88
3018.98
3028.31
3037.89
3047.73
3057.8
3068.11
3078.64
3089.4
3100.37
3111.53
3122.89
3134.43
3146.14
3158.01
3170.02
3182.15
3194.4
3206.7
3219.04
3231.37
3243.67
3255.89
3267.96
3279.8
3291.34
3302.45
3313.03
3322.9
3331.86
3339.77
3346.03
3350.65
3353.05
3353.24
3349.07
3341.2
3327.49
3307.7
3280.14
3241.42
3189.45
3121.59
3034.27
2917.23
2821.55
2815.01
2818.02
2817.67
2814.84
2808.87
2801.17
2792.08
2782.36
2772.68
2763.46
2755.89
2751.8
2752.12
2758.86
2771.72
2784.81
2793.52
2797.29
2799.14
2800.53
2801.7
2803.05
2804.53
2805.86
2807.04
2808.21
2809.45
2810.7
2811.83
2812.8
2813.69
2814.65
2815.74
2816.93
2818.17
2819.45
2820.82
2822.41
2824.33
2826.65
2829.35
2832.33
2835.46
2838.65
2841.87
2845.12
2848.41
2851.76
2855.22
2858.8
2862.53
2866.44
2870.53
2874.79
2879.2
2883.76
2888.46
2893.31
2898.32
2903.51
2908.89
2914.49
2920.31
2926.37
2932.67
2939.22
2946.01
2953.05
2960.35
2967.89
2975.69
2983.74
2992.06
3000.63
3009.47
3018.56
3027.91
3037.52
3047.39
3057.51
3067.9
3078.55
3089.44
3100.57
3111.95
3123.54
3135.36
3147.4
3159.65
3172.1
3184.73
3197.55
3210.53
3223.65
3236.87
3250.18
3263.56
3276.97
3290.36
3303.68
3316.86
3329.83
3342.5
3354.72
3366.39
3377.32
3387.25
3396.01
3402.85
3407.91
3410.32
3409.98
3403.87
3393.03
3374.73
3346.66
3306.47
3248.3
3170.94
3061.94
2820.27
2815.6
2819.03
2818.99
2816.52
2810.06
2801.35
2791.36
2780.97
2771.18
2761.98
2753.65
2747.95
2745.81
2748.6
2758.85
2773.64
2786.22
2793.32
2797.14
2799.39
2800.86
2802.3
2803.78
2805.11
2806.3
2807.5
2808.8
2810.15
2811.41
2812.55
2813.63
2814.79
2816.08
2817.48
2818.92
2820.39
2821.96
2823.74
2825.83
2828.31
2831.17
2834.3
2837.59
2840.95
2844.34
2847.76
2851.22
2854.76
2858.38
2862.14
2866.05
2870.15
2874.44
2878.89
2883.49
2888.24
2893.13
2898.16
2903.36
2908.72
2914.28
2920.05
2926.05
2932.28
2938.75
2945.47
2952.43
2959.65
2967.12
2974.85
2982.83
2991.08
2999.59
3008.36
3017.41
3026.73
3036.31
3046.16
3056.27
3066.66
3077.33
3088.27
3099.47
3110.94
3122.66
3134.63
3146.85
3159.32
3172.03
3184.97
3198.14
3211.53
3225.15
3238.95
3252.93
3267.06
3281.34
3295.74
3310.24
3324.79
3339.35
3353.87
3368.28
3382.49
3396.42
3409.89
3422.82
3434.94
3445.98
3455.65
3463.08
3468.4
3470.39
3468.7
3460.87
3445.71
3419.1
3372.36
3308.16
3206.5
2820.19
2816.21
2819.99
2820.08
2817.44
2810.3
2800.57
2789.55
2778.81
2769.17
2760.33
2751.96
2745.16
2741.65
2741.86
2748.07
2762.01
2777.46
2788.27
2794.57
2797.93
2799.87
2801.48
2803.01
2804.37
2805.61
2806.88
2808.26
2809.72
2811.11
2812.4
2813.66
2815.02
2816.51
2818.1
2819.72
2821.36
2823.1
2825.05
2827.32
2829.96
2832.96
2836.24
2839.67
2843.19
2846.73
2850.31
2853.93
2857.63
2861.43
2865.36
2869.45
2873.72
2878.19
2882.82
2887.61
2892.53
2897.6
2902.81
2908.17
2913.71
2919.43
2925.36
2931.52
2937.91
2944.55
2951.43
2958.56
2965.93
2973.57
2981.46
2989.62
2998.04
3006.73
3015.69
3024.93
3034.45
3044.24
3054.3
3064.64
3075.27
3086.18
3097.38
3108.85
3120.61
3132.64
3144.94
3157.51
3170.35
3183.46
3196.83
3210.45
3224.34
3238.48
3252.87
3267.48
3282.31
3297.34
3312.58
3327.99
3343.57
3359.27
3375.06
3390.9
3406.74
3422.52
3438.12
3453.49
3468.39
3482.76
3496.24
3508.62
3519.36
3527.62
3533.22
3534.89
3531.14
3517.45
3485.27
3439.77
3350.38
2821.05
2816.93
2820.76
2820.79
2817.53
2809.62
2798.57
2786.78
2775.95
2766.65
2758.33
2750.35
2743.16
2738.7
2737.52
2740.48
2751.53
2767.96
2782.13
2791.19
2795.98
2798.59
2800.48
2802.13
2803.58
2804.92
2806.29
2807.79
2809.37
2810.9
2812.36
2813.81
2815.37
2817.05
2818.82
2820.6
2822.39
2824.29
2826.4
2828.83
2831.62
2834.76
2838.16
2841.73
2845.37
2849.05
2852.77
2856.54
2860.39
2864.35
2868.44
2872.69
2877.14
2881.78
2886.59
2891.54
2896.64
2901.87
2907.25
2912.77
2918.46
2924.34
2930.43
2936.74
2943.29
2950.07
2957.1
2964.38
2971.92
2979.71
2987.76
2996.07
3004.66
3013.51
3022.64
3032.06
3041.76
3051.73
3061.99
3072.54
3083.38
3094.52
3105.95
3117.67
3129.69
3141.99
3154.58
3167.46
3180.63
3194.08
3207.82
3221.85
3236.16
3250.76
3265.64
3280.8
3296.21
3311.88
3327.81
3343.99
3360.41
3377.05
3393.88
3410.9
3428.06
3445.32
3462.64
3479.95
3497.14
3514.15
3530.73
3546.8
3561.87
3575.69
3587.35
3596.27
3602.03
3602.41
3587.56
3562.91
3498.62
2823.09
2817.74
2821.22
2820.97
2816.92
2807.68
2795.44
2783.16
2772.49
2763.66
2755.96
2748.6
2741.59
2736.66
2734.62
2735.59
2743.13
2758.64
2775.16
2786.92
2793.42
2796.93
2799.26
2801.13
2802.75
2804.22
2805.73
2807.38
2809.09
2810.78
2812.41
2814.07
2815.83
2817.71
2819.64
2821.56
2823.49
2825.52
2827.78
2830.36
2833.3
2836.57
2840.09
2843.77
2847.52
2851.32
2855.17
2859.07
2863.07
2867.17
2871.42
2875.83
2880.45
2885.25
2890.22
2895.33
2900.58
2905.97
2911.49
2917.17
2923.01
2929.04
2935.27
2941.73
2948.42
2955.35
2962.52
2969.94
2977.62
2985.55
2993.75
3002.22
3010.95
3019.96
3029.25
3038.83
3048.7
3058.85
3069.29
3080.02
3091.06
3102.4
3114.04
3125.99
3138.24
3150.79
3163.64
3176.79
3190.25
3204.01
3218.08
3232.45
3247.13
3262.13
3277.44
3293.06
3308.97
3325.18
3341.7
3358.53
3375.65
3393.07
3410.77
3428.74
3446.97
3465.44
3484.12
3502.99
3521.98
3541.04
3560.07
3578.96
3597.49
3615.53
3632.47
3648.16
3661.08
3670.76
3674.03
3664.76
3636.72
2826.15
2818.56
2821.52
2820.72
2815.23
2804.43
2791.31
2778.94
2768.66
2760.39
2753.35
2746.72
2740.25
2735.22
2732.56
2732.55
2736.99
2750.23
2767.74
2781.89
2790.29
2794.92
2797.85
2800.06
2801.89
2803.54
2805.21
2807.02
2808.89
2810.75
2812.58
2814.44
2816.41
2818.48
2820.56
2822.6
2824.64
2826.79
2829.18
2831.9
2834.98
2838.37
2841.99
2845.76
2849.62
2853.53
2857.48
2861.51
2865.64
2869.89
2874.29
2878.86
2883.63
2888.59
2893.71
2898.98
2904.37
2909.9
2915.56
2921.38
2927.36
2933.52
2939.9
2946.49
2953.32
2960.38
2967.69
2975.25
2983.07
2991.14
2999.47
3008.08
3016.96
3026.11
3035.55
3045.29
3055.32
3065.63
3076.25
3087.16
3098.38
3109.91
3121.75
3133.91
3146.38
3159.16
3172.25
3185.65
3199.38
3213.43
3227.79
3242.48
3257.49
3272.85
3288.54
3304.56
3320.91
3337.59
3354.61
3371.99
3389.7
3407.77
3426.17
3444.92
3464
3483.43
3503.18
3523.25
3543.61
3564.22
3585.07
3606.05
3627.11
3648.08
3668.71
3688.87
3707.77
3724.96
3738.62
3743.66
3745.94
2830.11
2819.27
2821.66
2819.83
2812.4
2800.1
2786.51
2774.45
2764.76
2757.15
2750.77
2744.88
2739.1
2734.15
2731.08
2730.39
2732.63
2743.06
2760.37
2776.36
2786.71
2792.65
2796.33
2798.97
2801.06
2802.9
2804.76
2806.73
2808.79
2810.83
2812.86
2814.93
2817.1
2819.33
2821.53
2823.67
2825.81
2828.07
2830.6
2833.46
2836.67
2840.17
2843.88
2847.74
2851.68
2855.68
2859.74
2863.89
2868.14
2872.52
2877.06
2881.78
2886.7
2891.81
2897.07
2902.47
2908
2913.66
2919.45
2925.4
2931.51
2937.8
2944.31
2951.03
2957.99
2965.18
2972.62
2980.31
2988.25
2996.45
3004.92
3013.65
3022.67
3031.96
3041.54
3051.42
3061.6
3072.07
3082.84
3093.92
3105.31
3117.03
3129.05
3141.4
3154.07
3167.06
3180.38
3194.01
3207.98
3222.28
3236.92
3251.89
3267.21
3282.88
3298.91
3315.29
3332.02
3349.11
3366.57
3384.41
3402.62
3421.22
3440.19
3459.56
3479.32
3499.49
3520.03
3540.99
3562.32
3584.03
3606.09
3628.45
3651.12
3673.89
3696.7
3719.37
3741.29
3762.52
3780.69
3793.87
3808.35
2834.71
2819.67
2821.34
2818.05
2808.58
2795.16
2781.57
2770.09
2761.14
2754.19
2748.46
2743.24
2738.09
2733.25
2729.89
2728.59
2729.57
2737.16
2753.41
2770.7
2782.94
2790.29
2794.81
2797.91
2800.29
2802.34
2804.39
2806.55
2808.78
2811
2813.23
2815.52
2817.87
2820.23
2822.53
2824.75
2826.97
2829.34
2831.99
2834.99
2838.33
2841.93
2845.73
2849.66
2853.68
2857.77
2861.93
2866.18
2870.55
2875.06
2879.74
2884.61
2889.67
2894.91
2900.31
2905.83
2911.48
2917.26