/*--------------------------------*- C++ -*----------------------------------*\
| =========                 |                                                 |
| \\      /  F ield         | OpenFOAM: The Open Source CFD Toolbox           |
|  \\    /   O peration     | Version:  2412                                  |
|   \\  /    A nd           | Website:  www.openfoam.com                      |
|    \\/     M anipulation  |                                                 |
\*---------------------------------------------------------------------------*/
FoamFile
{
    version     2.0;
    format      ascii;
    arch        "LSB;label=32;scalar=64";
    class       volScalarField;
    location    "0.085";
    object      rho;
}
// * * * * * * * * * * * * * * * * * * * * * * * * * * * * * * * * * * * * * //

dimensions      [1 -3 0 0 0 0 0];

internalField   nonuniform List<scalar> 
78650
(
0.0464509
0.043552
0.0434083
0.0433457
0.0432831
0.0432097
0.0431209
0.043012
0.0428891
0.0427687
0.0426584
0.0425631
0.0424836
0.0424194
0.0423691
0.0423293
0.0422958
0.0422661
0.0422369
0.0422055
0.0421708
0.0421329
0.0420937
0.0420553
0.0420194
0.0419877
0.0419616
0.0419423
0.0419295
0.0419214
0.0419158
0.0419109
0.0419054
0.0418988
0.0418911
0.0418823
0.0418721
0.0418601
0.041846
0.0418295
0.0418109
0.0417907
0.0417694
0.0417477
0.041726
0.0417047
0.041684
0.0416643
0.0416457
0.0416284
0.0416123
0.0415975
0.0415837
0.041571
0.0415592
0.0415481
0.0415377
0.0415279
0.0415186
0.0415097
0.0415009
0.0414919
0.0414825
0.0414722
0.041461
0.0414483
0.0414338
0.0414172
0.0413979
0.0413753
0.041349
0.0413182
0.0412823
0.0412406
0.0411923
0.0411365
0.0410721
0.0409979
0.0409131
0.0408164
0.0407066
0.0405821
0.0404411
0.0402821
0.0401033
0.0399034
0.0396801
0.0394321
0.0391564
0.0388521
0.0385158
0.0381495
0.0377482
0.037316
0.0368417
0.0363382
0.0357944
0.0352163
0.0346076
0.0339534
0.0332775
0.0325724
0.0318458
0.0311394
0.030406
0.0296795
0.0289798
0.0282697
0.0275815
0.0269368
0.0263281
0.0257663
0.0252286
0.0247285
0.0243178
0.0239322
0.0235636
0.0231829
0.022821
0.0224903
0.0219258
0.0460857
0.043474
0.0433855
0.0433404
0.0432854
0.0432165
0.0431306
0.0430244
0.0429032
0.0427833
0.0426722
0.0425751
0.0424934
0.0424273
0.0423759
0.0423358
0.0423034
0.0422755
0.0422487
0.0422199
0.0421876
0.0421516
0.0421137
0.0420761
0.0420404
0.0420082
0.0419811
0.0419605
0.0419467
0.0419383
0.041933
0.0419289
0.0419246
0.0419194
0.0419131
0.0419059
0.0418976
0.0418879
0.0418764
0.0418625
0.0418465
0.0418287
0.0418096
0.04179
0.0417703
0.0417509
0.0417321
0.0417143
0.0416977
0.0416824
0.0416684
0.0416557
0.0416443
0.041634
0.0416246
0.0416162
0.0416086
0.0416018
0.0415956
0.0415901
0.0415848
0.0415796
0.0415742
0.0415683
0.0415617
0.041554
0.041545
0.0415342
0.0415211
0.0415054
0.0414865
0.0414637
0.0414365
0.0414043
0.0413662
0.0413216
0.0412695
0.0412087
0.0411383
0.0410573
0.0409644
0.0408585
0.0407378
0.0406007
0.0404454
0.0402705
0.0400736
0.0398533
0.039607
0.039334
0.0390316
0.0387003
0.0383351
0.0379374
0.0374994
0.037032
0.0365222
0.035982
0.0354031
0.034783
0.0341226
0.0334397
0.0327322
0.0320206
0.0313037
0.030548
0.0298266
0.0291041
0.028399
0.0277433
0.0271102
0.0264961
0.0259163
0.0253412
0.0248187
0.0243686
0.0239759
0.0235965
0.0232066
0.0228235
0.0221797
0.0457167
0.043404
0.0433546
0.0433292
0.0432878
0.0432274
0.0431467
0.0430439
0.0429251
0.0428066
0.0426959
0.0425979
0.0425142
0.0424457
0.042392
0.0423501
0.0423171
0.0422897
0.0422643
0.0422376
0.0422073
0.042173
0.0421362
0.0420992
0.0420638
0.0420313
0.0420032
0.0419812
0.0419662
0.041957
0.0419517
0.0419481
0.0419448
0.0419407
0.0419357
0.04193
0.0419235
0.0419158
0.0419067
0.0418954
0.041882
0.0418667
0.04185
0.0418326
0.041815
0.0417976
0.0417808
0.041765
0.0417504
0.0417371
0.0417252
0.0417147
0.0417056
0.0416977
0.0416909
0.0416852
0.0416804
0.0416765
0.0416734
0.0416712
0.0416695
0.041668
0.0416667
0.0416651
0.0416631
0.0416604
0.0416566
0.0416516
0.0416446
0.0416355
0.0416238
0.0416088
0.0415899
0.0415668
0.0415386
0.0415046
0.041464
0.0414157
0.0413589
0.0412925
0.0412154
0.0411265
0.0410243
0.0409071
0.0407732
0.0406212
0.0404493
0.040256
0.0400388
0.0397965
0.0395261
0.0392271
0.0388951
0.0385309
0.0381289
0.0376962
0.0372223
0.0367176
0.0361671
0.0355807
0.0349578
0.0343003
0.0336195
0.0328879
0.0321797
0.0314122
0.0306661
0.0299349
0.0291842
0.0284509
0.0277758
0.0271132
0.0265125
0.0259296
0.0253368
0.0247935
0.0243081
0.0238519
0.0234378
0.023065
0.0224208
0.0453556
0.0433251
0.0433193
0.0433128
0.0432913
0.0432454
0.043173
0.0430741
0.0429571
0.0428394
0.0427289
0.04263
0.0425443
0.0424731
0.0424162
0.0423715
0.0423367
0.0423088
0.0422842
0.0422589
0.0422304
0.0421976
0.042162
0.0421257
0.0420905
0.0420577
0.0420287
0.0420052
0.0419885
0.0419781
0.0419723
0.0419689
0.0419662
0.0419631
0.0419592
0.0419548
0.0419498
0.0419441
0.0419372
0.0419285
0.0419178
0.0419051
0.0418909
0.0418758
0.0418604
0.0418451
0.0418303
0.0418164
0.0418038
0.0417925
0.0417827
0.0417744
0.0417675
0.041762
0.0417577
0.0417545
0.0417525
0.0417515
0.0417515
0.0417524
0.041754
0.0417562
0.0417587
0.0417613
0.0417637
0.0417657
0.041767
0.0417674
0.0417663
0.0417635
0.0417587
0.0417512
0.0417402
0.0417257
0.0417069
0.0416831
0.0416536
0.0416174
0.0415738
0.0415215
0.0414599
0.0413878
0.0413038
0.0412066
0.0410944
0.0409658
0.040819
0.0406524
0.0404633
0.0402504
0.040011
0.0397445
0.0394476
0.0391203
0.0387577
0.0383634
0.0379284
0.0374609
0.0369477
0.0364014
0.0358122
0.0351776
0.0345237
0.0338126
0.0330891
0.0323494
0.0315693
0.0308212
0.0300617
0.0292784
0.0285465
0.027833
0.0271254
0.0265064
0.025893
0.0253131
0.0247668
0.024224
0.02372
0.0232656
0.0224642
0.0449797
0.0432517
0.0432783
0.0432921
0.0432895
0.0432657
0.0432075
0.0431149
0.0429996
0.0428808
0.0427696
0.0426696
0.0425821
0.0425085
0.0424484
0.0424001
0.0423626
0.0423333
0.0423085
0.042284
0.0422568
0.0422255
0.0421909
0.0421552
0.0421203
0.0420872
0.0420574
0.0420325
0.042014
0.042002
0.0419953
0.0419916
0.0419892
0.0419869
0.041984
0.0419806
0.041977
0.0419729
0.0419682
0.0419619
0.0419538
0.0419438
0.0419323
0.0419196
0.0419065
0.0418934
0.0418807
0.0418689
0.0418583
0.0418491
0.0418414
0.0418352
0.0418306
0.0418274
0.0418256
0.0418251
0.0418257
0.0418276
0.0418306
0.0418346
0.0418395
0.0418453
0.0418516
0.0418582
0.0418649
0.0418715
0.0418778
0.0418834
0.041888
0.0418913
0.0418929
0.0418926
0.0418894
0.0418833
0.0418734
0.0418593
0.0418403
0.0418154
0.0417841
0.0417452
0.041698
0.0416414
0.0415743
0.0414953
0.0414028
0.0412954
0.0411714
0.0410294
0.0408672
0.0406835
0.0404757
0.0402426
0.0399808
0.0396892
0.0393639
0.0390062
0.0386088
0.0381769
0.0377003
0.0371908
0.0366358
0.0360441
0.0354083
0.0347443
0.0340225
0.0333052
0.0325332
0.0317345
0.0309721
0.0301808
0.0293971
0.028676
0.0279202
0.02721
0.0265592
0.0259483
0.0253773
0.024813
0.024279
0.0237856
0.022902
0.0446124
0.0431601
0.0432341
0.0432759
0.0432898
0.0432811
0.043243
0.0431628
0.0430509
0.0429307
0.0428179
0.0427162
0.0426269
0.042551
0.0424875
0.0424356
0.042395
0.0423635
0.0423376
0.0423131
0.0422869
0.0422569
0.0422235
0.0421884
0.0421536
0.0421204
0.0420899
0.0420637
0.0420432
0.0420292
0.0420208
0.0420164
0.0420139
0.042012
0.0420098
0.0420075
0.042005
0.0420025
0.0419996
0.0419956
0.0419901
0.0419829
0.0419741
0.041964
0.0419534
0.0419426
0.0419321
0.0419224
0.0419139
0.0419068
0.0419012
0.0418972
0.0418948
0.041894
0.0418946
0.0418967
0.0419
0.0419046
0.0419104
0.0419175
0.0419257
0.0419349
0.0419449
0.0419554
0.0419663
0.0419773
0.0419883
0.0419989
0.042009
0.0420182
0.0420261
0.0420323
0.0420365
0.0420382
0.042037
0.0420322
0.0420234
0.0420094
0.04199
0.041964
0.0419307
0.0418892
0.0418386
0.0417776
0.0417047
0.0416185
0.0415175
0.0414005
0.041265
0.0411097
0.0409315
0.040729
0.0404994
0.040242
0.0399535
0.0396334
0.0392757
0.0388841
0.0384516
0.0379847
0.0374702
0.0369182
0.0363182
0.0356738
0.0349991
0.0342702
0.0335322
0.0327277
0.0319343
0.0311346
0.0303121
0.0295246
0.0287416
0.0279477
0.0272123
0.0264985
0.025833
0.0252098
0.0246446
0.0241363
0.0232357
0.0442437
0.043047
0.0431715
0.0432484
0.043285
0.0432894
0.0432707
0.0432086
0.0431054
0.0429862
0.0428719
0.0427685
0.0426774
0.0425991
0.0425327
0.0424775
0.0424336
0.0423993
0.0423715
0.0423465
0.0423207
0.0422919
0.0422595
0.042225
0.0421904
0.0421569
0.0421258
0.0420984
0.042076
0.0420597
0.0420494
0.0420436
0.0420405
0.0420387
0.042037
0.0420355
0.042034
0.0420328
0.0420317
0.0420297
0.0420266
0.0420221
0.0420161
0.0420089
0.0420008
0.0419925
0.0419843
0.0419769
0.0419705
0.0419655
0.0419621
0.0419603
0.0419602
0.0419618
0.0419649
0.0419694
0.0419753
0.0419827
0.0419915
0.0420016
0.0420129
0.0420255
0.042039
0.0420534
0.0420683
0.0420837
0.0420992
0.0421148
0.0421302
0.042145
0.042159
0.0421718
0.042183
0.0421921
0.0421988
0.0422027
0.0422036
0.0422
0.0421919
0.0421781
0.0421577
0.0421303
0.0420947
0.0420502
0.0419952
0.0419285
0.0418485
0.0417539
0.0416428
0.0415138
0.0413644
0.0411935
0.0409984
0.0407781
0.0405285
0.0402481
0.039932
0.0395826
0.0391931
0.0387674
0.0382937
0.0377802
0.0372168
0.0366142
0.0359665
0.0352758
0.0345572
0.0337885
0.0329763
0.0321789
0.0313436
0.0304936
0.0297095
0.0288984
0.0281065
0.0273622
0.0266215
0.0259237
0.0252507
0.0246235
0.0234971
0.0438846
0.0429057
0.0430704
0.0431957
0.043272
0.0432897
0.0432846
0.0432439
0.043155
0.043041
0.0429262
0.0428215
0.0427292
0.0426497
0.0425819
0.0425245
0.0424775
0.0424401
0.0424098
0.0423836
0.042358
0.0423299
0.0422985
0.0422645
0.0422297
0.042196
0.0421644
0.0421359
0.0421118
0.0420933
0.0420806
0.0420731
0.0420689
0.0420668
0.0420654
0.0420643
0.0420637
0.0420638
0.0420642
0.0420641
0.0420633
0.0420614
0.0420582
0.0420538
0.0420485
0.0420428
0.0420372
0.042032
0.0420279
0.0420251
0.042024
0.0420243
0.0420266
0.0420304
0.0420359
0.042043
0.0420516
0.0420616
0.0420732
0.0420862
0.0421007
0.0421165
0.0421335
0.0421515
0.0421703
0.0421898
0.0422098
0.0422301
0.0422505
0.0422707
0.0422905
0.0423094
0.0423273
0.0423437
0.0423583
0.0423705
0.04238
0.0423863
0.0423888
0.0423867
0.0423792
0.0423656
0.0423446
0.0423161
0.0422785
0.0422309
0.0421716
0.0420994
0.0420126
0.0419099
0.0417889
0.0416481
0.0414846
0.0412967
0.0410809
0.0408361
0.0405586
0.0402495
0.039902
0.0395178
0.0390888
0.0386213
0.0381047
0.0375459
0.0369354
0.0362808
0.0355788
0.034845
0.034049
0.0332217
0.0323879
0.0315127
0.0306528
0.0297918
0.0289289
0.0281274
0.0273283
0.026578
0.0258944
0.0252955
0.0241912
0.0435436
0.0427216
0.042908
0.0430953
0.0432291
0.0432821
0.043289
0.0432639
0.0431906
0.0430849
0.0429714
0.0428667
0.0427745
0.0426955
0.0426284
0.0425707
0.0425227
0.0424832
0.0424508
0.042423
0.042397
0.0423694
0.0423386
0.042305
0.0422703
0.0422364
0.0422046
0.0421756
0.0421501
0.0421295
0.0421146
0.0421049
0.0420993
0.0420964
0.0420949
0.0420941
0.042094
0.0420953
0.0420971
0.0420987
0.0421
0.0421005
0.0421001
0.0420986
0.0420961
0.0420932
0.0420902
0.0420876
0.0420858
0.0420853
0.0420864
0.0420892
0.0420936
0.0420998
0.0421077
0.0421173
0.0421285
0.0421412
0.0421556
0.0421715
0.042189
0.042208
0.0422284
0.04225
0.0422726
0.0422962
0.0423205
0.0423453
0.0423705
0.0423959
0.0424212
0.0424462
0.0424705
0.0424938
0.0425156
0.0425359
0.0425541
0.0425696
0.0425818
0.0425902
0.0425942
0.0425937
0.0425865
0.042573
0.0425512
0.042521
0.0424804
0.0424287
0.0423641
0.0422855
0.0421905
0.0420779
0.0419449
0.0417902
0.0416109
0.0414059
0.0411711
0.0409056
0.0406028
0.0402636
0.039882
0.0394618
0.0389932
0.0384792
0.03791
0.0372982
0.0366374
0.0359252
0.0351757
0.0343593
0.0335386
0.0326645
0.0317703
0.0308884
0.0299816
0.0291287
0.0282529
0.0273933
0.0265285
0.0257588
0.0243664
0.0432571
0.0425036
0.0426814
0.0429225
0.0431368
0.0432508
0.0432786
0.0432698
0.0432123
0.0431171
0.0430043
0.0428981
0.042806
0.0427282
0.0426627
0.042607
0.0425608
0.0425223
0.0424901
0.042462
0.0424356
0.0424082
0.0423778
0.0423445
0.0423098
0.042276
0.0422444
0.0422152
0.042189
0.042167
0.0421501
0.0421383
0.042131
0.042127
0.0421251
0.0421244
0.0421247
0.042127
0.0421301
0.0421334
0.0421366
0.0421395
0.0421416
0.0421428
0.0421433
0.0421433
0.0421431
0.0421431
0.0421438
0.0421457
0.0421491
0.0421541
0.0421609
0.0421695
0.0421799
0.0421919
0.0422057
0.0422211
0.0422382
0.0422569
0.0422774
0.0422995
0.0423231
0.0423481
0.0423744
0.0424018
0.0424302
0.0424594
0.0424892
0.0425195
0.0425501
0.0425807
0.0426111
0.0426409
0.0426698
0.0426975
0.0427237
0.042748
0.0427699
0.0427888
0.0428038
0.0428145
0.0428205
0.0428216
0.0428155
0.0428024
0.0427802
0.0427483
0.0427052
0.0426498
0.0425802
0.042495
0.0423916
0.0422687
0.0421234
0.041954
0.0417566
0.0415297
0.0412681
0.0409728
0.0406389
0.0402679
0.0398498
0.0393859
0.0388682
0.0383046
0.037685
0.037014
0.0362877
0.0355153
0.0346909
0.0338285
0.0329082
0.03201
0.0310708
0.0301422
0.0292359
0.0283935
0.0275819
0.0268128
0.0253355
0.0430673
0.0423092
0.0424402
0.0426723
0.0429533
0.0431593
0.0432498
0.0432562
0.0432194
0.043131
0.0430233
0.0429182
0.0428255
0.0427466
0.0426808
0.0426269
0.0425837
0.0425486
0.0425189
0.0424928
0.0424686
0.0424431
0.0424144
0.0423821
0.0423482
0.042315
0.0422837
0.0422546
0.0422281
0.0422053
0.0421868
0.0421732
0.042164
0.0421587
0.042156
0.0421551
0.0421556
0.0421586
0.042163
0.0421678
0.0421729
0.0421779
0.0421824
0.0421863
0.0421897
0.0421925
0.0421953
0.0421981
0.0422015
0.0422058
0.0422116
0.0422191
0.0422283
0.0422392
0.042252
0.0422666
0.0422829
0.0423009
0.0423207
0.0423423
0.0423656
0.0423907
0.0424175
0.0424459
0.0424757
0.0425068
0.0425392
0.0425726
0.0426069
0.0426419
0.0426776
0.0427136
0.0427497
0.0427857
0.0428212
0.042856
0.0428899
0.0429224
0.0429531
0.0429815
0.0430071
0.0430293
0.0430472
0.0430605
0.0430686
0.043071
0.0430658
0.0430523
0.0430291
0.042995
0.0429487
0.0428889
0.0428133
0.0427205
0.0426078
0.0424735
0.0423142
0.0421284
0.0419115
0.0416634
0.0413781
0.0410549
0.0406856
0.0402721
0.0398079
0.0392951
0.0387232
0.0381015
0.0374206
0.0366839
0.0358941
0.0350621
0.0341718
0.0332245
0.0322799
0.0312251
0.0302415
0.0292364
0.0282932
0.0274737
0.0259564
0.0429762
0.0422289
0.042276
0.0424118
0.04268
0.0429661
0.0431511
0.0432093
0.043199
0.0431296
0.0430265
0.0429217
0.0428294
0.0427515
0.0426869
0.042634
0.0425917
0.0425574
0.0425293
0.0425054
0.0424842
0.0424633
0.0424395
0.0424118
0.0423813
0.0423504
0.0423203
0.0422918
0.0422655
0.0422424
0.0422232
0.0422083
0.0421976
0.0421908
0.0421873
0.0421859
0.0421864
0.0421898
0.0421954
0.0422016
0.0422086
0.0422157
0.0422225
0.042229
0.042235
0.0422408
0.0422464
0.0422521
0.0422583
0.0422653
0.0422736
0.0422835
0.0422951
0.0423085
0.0423237
0.0423408
0.0423597
0.0423803
0.0424027
0.042427
0.0424531
0.0424811
0.042511
0.0425425
0.0425757
0.0426104
0.0426465
0.0426839
0.0427225
0.042762
0.0428024
0.0428434
0.042885
0.0429268
0.0429686
0.0430101
0.0430511
0.0430913
0.0431304
0.0431679
0.0432033
0.043236
0.0432655
0.0432915
0.0433129
0.0433292
0.0433398
0.0433438
0.04334
0.0433267
0.043303
0.0432671
0.0432175
0.0431528
0.0430708
0.0429695
0.042846
0.0426984
0.0425228
0.0423182
0.0420784
0.0418029
0.0414857
0.0411281
0.0407217
0.040265
0.0397496
0.0391829
0.0385537
0.0378663
0.0371142
0.0363004
0.0354502
0.0345288
0.0336082
0.0325899
0.0315591
0.0305689
0.0294872
0.028492
0.0266439
0.0429399
0.0422309
0.0422099
0.0422324
0.0423899
0.0426731
0.0429519
0.0431026
0.0431345
0.0431029
0.043015
0.0429127
0.042821
0.0427438
0.0426805
0.0426291
0.0425885
0.0425565
0.0425305
0.0425088
0.0424897
0.0424712
0.0424518
0.0424303
0.0424062
0.0423802
0.0423532
0.0423265
0.0423011
0.0422782
0.0422587
0.042243
0.0422312
0.0422232
0.0422185
0.0422166
0.0422168
0.0422204
0.0422269
0.0422346
0.0422433
0.0422525
0.0422615
0.0422704
0.0422791
0.0422876
0.0422961
0.0423047
0.0423137
0.0423235
0.0423345
0.0423469
0.042361
0.0423769
0.0423946
0.0424142
0.0424356
0.0424588
0.0424838
0.0425107
0.0425396
0.0425705
0.0426033
0.042638
0.0426744
0.0427126
0.0427523
0.0427935
0.0428361
0.0428799
0.0429248
0.0429707
0.0430174
0.0430648
0.0431124
0.0431602
0.043208
0.0432554
0.0433022
0.0433481
0.0433926
0.0434351
0.0434753
0.0435125
0.0435463
0.0435762
0.0436012
0.0436204
0.043633
0.0436386
0.0436359
0.0436224
0.0435978
0.0435593
0.0435064
0.0434367
0.0433477
0.0432376
0.0431026
0.0429411
0.0427474
0.0425207
0.0422555
0.0419517
0.0416001
0.0411992
0.0407434
0.0402352
0.0396621
0.0390277
0.0383223
0.0375573
0.0367286
0.0358419
0.034854
0.0338944
0.0327749
0.0317417
0.0306848
0.0297575
0.0279683
0.0429204
0.0422535
0.042199
0.0421634
0.0422094
0.0423839
0.0426653
0.0429076
0.0430147
0.0430243
0.0429787
0.0428911
0.0428018
0.0427256
0.0426643
0.0426159
0.0425781
0.0425484
0.0425242
0.0425041
0.0424865
0.0424699
0.0424534
0.0424362
0.0424184
0.042399
0.0423778
0.0423551
0.0423322
0.0423107
0.0422918
0.0422761
0.0422639
0.042255
0.0422496
0.042247
0.0422469
0.0422504
0.0422576
0.0422665
0.042277
0.0422881
0.0422994
0.0423107
0.0423218
0.042333
0.0423442
0.0423557
0.0423676
0.0423802
0.0423939
0.0424089
0.0424256
0.042444
0.0424642
0.0424863
0.0425102
0.0425359
0.0425635
0.0425931
0.0426246
0.0426582
0.0426939
0.0427315
0.0427711
0.0428125
0.0428556
0.0429005
0.0429468
0.0429947
0.0430438
0.0430943
0.0431458
0.0431982
0.0432514
0.0433051
0.0433591
0.0434132
0.0434673
0.043521
0.0435739
0.0436256
0.0436756
0.0437235
0.0437689
0.0438113
0.0438499
0.0438843
0.0439133
0.0439358
0.0439512
0.0439587
0.0439579
0.0439442
0.0439186
0.0438774
0.0438202
0.0437442
0.0436465
0.0435252
0.0433754
0.0431963
0.0429821
0.0427315
0.0424364
0.0420963
0.0417048
0.0412595
0.0407503
0.0401811
0.0395401
0.0388357
0.0380526
0.0372027
0.0362924
0.0352932
0.0342336
0.0330588
0.0318577
0.0307313
0.0286753
0.042892
0.0422917
0.0422211
0.0421563
0.0421459
0.0422021
0.0423834
0.0426387
0.0428293
0.0428975
0.0428924
0.0428405
0.0427638
0.0426918
0.0426336
0.0425889
0.0425548
0.0425286
0.0425073
0.0424898
0.0424751
0.0424619
0.0424493
0.0424359
0.0424221
0.0424082
0.0423933
0.0423765
0.0423577
0.0423386
0.0423212
0.0423063
0.0422944
0.0422854
0.0422795
0.0422764
0.042276
0.0422793
0.0422869
0.042297
0.0423091
0.0423222
0.0423357
0.0423493
0.0423628
0.0423765
0.0423904
0.0424046
0.0424194
0.0424348
0.0424513
0.042469
0.0424884
0.0425093
0.0425321
0.0425566
0.0425831
0.0426113
0.0426415
0.0426736
0.0427078
0.0427441
0.0427825
0.042823
0.0428655
0.0429101
0.0429565
0.0430047
0.0430547
0.0431064
0.0431596
0.0432143
0.0432703
0.0433276
0.043386
0.0434451
0.043505
0.0435654
0.0436261
0.043687
0.0437477
0.0438078
0.0438669
0.0439246
0.0439805
0.0440343
0.0440853
0.0441329
0.0441765
0.0442152
0.0442483
0.0442741
0.0442922
0.0443016
0.0443023
0.0442885
0.0442619
0.0442182
0.0441564
0.0440737
0.0439666
0.0438334
0.0436681
0.0434692
0.0432302
0.0429498
0.0426198
0.0422365
0.041793
0.0412895
0.0407135
0.040071
0.0393485
0.038556
0.0376861
0.0367343
0.0357211
0.0346473
0.0334681
0.032369
0.0302865
0.0428433
0.0423305
0.0422639
0.0421739
0.0421373
0.0421398
0.0422067
0.0423777
0.042585
0.0427197
0.0427665
0.0427565
0.0427073
0.0426461
0.0425923
0.0425517
0.0425218
0.0424998
0.0424824
0.0424684
0.0424569
0.0424475
0.0424389
0.0424304
0.0424207
0.04241
0.0423998
0.042389
0.0423757
0.0423603
0.0423453
0.0423322
0.0423215
0.0423133
0.0423077
0.0423046
0.042304
0.0423073
0.042315
0.042326
0.0423397
0.0423547
0.0423704
0.0423863
0.0424023
0.0424183
0.0424347
0.0424516
0.0424691
0.0424873
0.0425065
0.042527
0.042549
0.0425726
0.042598
0.042625
0.042654
0.0426848
0.0427174
0.0427521
0.0427888
0.0428276
0.0428687
0.0429119
0.0429573
0.0430048
0.0430543
0.0431058
0.0431592
0.0432144
0.0432714
0.04333
0.0433902
0.043452
0.0435151
0.0435793
0.0436445
0.0437107
0.0437776
0.0438451
0.0439129
0.0439807
0.0440482
0.0441149
0.0441805
0.0442448
0.0443072
0.0443672
0.0444243
0.0444778
0.0445268
0.0445706
0.0446083
0.0446378
0.0446592
0.0446709
0.0446727
0.0446588
0.0446302
0.0445829
0.044515
0.0444242
0.0443052
0.0441564
0.0439715
0.0437487
0.0434795
0.0431609
0.0427862
0.0423522
0.0418481
0.0412747
0.0406178
0.0398853
0.0390587
0.0381413
0.0371293
0.036041
0.0348113
0.0336849
0.0316567
0.0427797
0.0423569
0.0423101
0.0422138
0.0421519
0.0421343
0.0421428
0.0422092
0.0423496
0.0425011
0.0425997
0.0426374
0.0426284
0.0425898
0.0425426
0.0425049
0.0424768
0.0424579
0.0424453
0.042436
0.042429
0.0424233
0.0424196
0.0424162
0.0424123
0.0424067
0.0424007
0.0423944
0.0423865
0.0423756
0.0423636
0.0423528
0.0423442
0.0423376
0.042333
0.0423305
0.0423302
0.0423337
0.0423415
0.0423533
0.0423683
0.0423853
0.0424032
0.0424214
0.0424397
0.0424581
0.042477
0.0424963
0.0425164
0.0425373
0.0425592
0.0425824
0.0426072
0.0426334
0.0426614
0.042691
0.0427224
0.0427557
0.0427909
0.042828
0.0428672
0.0429085
0.0429521
0.042998
0.0430461
0.0430964
0.0431488
0.0432034
0.04326
0.0433186
0.0433791
0.0434415
0.0435056
0.0435715
0.043639
0.043708
0.0437782
0.0438497
0.0439223
0.0439959
0.0440702
0.044145
0.0442201
0.044295
0.0443695
0.0444432
0.0445159
0.0445871
0.0446562
0.0447229
0.0447862
0.0448457
0.0449003
0.0449493
0.0449916
0.0450254
0.0450502
0.0450643
0.0450674
0.0450535
0.0450229
0.0449715
0.0448961
0.0447948
0.0446616
0.0444949
0.0442866
0.0440341
0.0437296
0.0433689
0.0429423
0.0424471
0.0418715
0.0412197
0.040475
0.0396407
0.038695
0.0376347
0.0364724
0.0352439
0.0331473
0.0427141
0.0423701
0.0423472
0.0422648
0.042187
0.0421473
0.0421373
0.0421428
0.0421868
0.0422847
0.0423994
0.0424829
0.0425218
0.0425186
0.0424907
0.0424587
0.0424312
0.0424132
0.0424036
0.0423987
0.0423963
0.0423952
0.0423962
0.0423979
0.0423995
0.0423993
0.0423981
0.0423949
0.0423906
0.0423843
0.042376
0.0423681
0.042362
0.0423577
0.0423549
0.0423537
0.0423544
0.0423584
0.0423664
0.042379
0.0423952
0.042414
0.042434
0.0424545
0.0424752
0.042496
0.0425172
0.042539
0.0425615
0.042585
0.0426095
0.0426354
0.0426628
0.0426917
0.0427222
0.0427544
0.0427884
0.0428241
0.0428617
0.0429013
0.0429429
0.0429866
0.0430327
0.0430811
0.0431317
0.0431847
0.0432399
0.0432973
0.0433569
0.0434186
0.0434824
0.0435482
0.043616
0.0436857
0.0437573
0.0438305
0.0439053
0.0439817
0.0440594
0.0441385
0.0442187
0.0442999
0.0443818
0.0444642
0.0445466
0.044629
0.044711
0.0447923
0.0448724
0.044951
0.0450275
0.0451012
0.0451714
0.0452375
0.0452982
0.045353
0.0454006
0.0454388
0.045467
0.0454833
0.0454872
0.0454725
0.0454386
0.0453817
0.0452977
0.0451844
0.0450346
0.0448455
0.0446079
0.0443171
0.0439641
0.0435448
0.0430477
0.0424712
0.0418002
0.0410389
0.0401603
0.0391894
0.0380662
0.0369074
0.0349806
0.0426549
0.0423762
0.0423722
0.0423124
0.0422337
0.0421765
0.0421448
0.0421274
0.0421115
0.0421265
0.0421976
0.0422953
0.0423821
0.0424234
0.0424275
0.0424135
0.0423902
0.0423717
0.0423611
0.042358
0.0423586
0.0423617
0.0423673
0.0423738
0.0423802
0.042385
0.0423887
0.0423902
0.0423895
0.0423872
0.0423832
0.0423783
0.0423749
0.0423732
0.0423729
0.0423737
0.0423759
0.0423808
0.0423895
0.0424028
0.0424202
0.0424407
0.0424628
0.0424856
0.0425087
0.0425319
0.0425554
0.0425795
0.0426043
0.0426302
0.0426572
0.0426856
0.0427156
0.0427472
0.0427803
0.0428151
0.0428515
0.0428897
0.0429297
0.0429716
0.0430156
0.0430617
0.0431101
0.0431609
0.043214
0.0432695
0.0433273
0.0433874
0.0434498
0.0435144
0.0435813
0.0436503
0.0437214
0.0437946
0.0438699
0.0439471
0.0440262
0.0441069
0.0441894
0.0442735
0.0443591
0.044446
0.0445341
0.0446232
0.0447128
0.0448029
0.0448933
0.0449836
0.0450735
0.0451626
0.0452507
0.045337
0.0454211
0.0455022
0.0455796
0.0456525
0.04572
0.045781
0.0458342
0.0458771
0.045909
0.0459277
0.0459325
0.0459166
0.0458783
0.0458139
0.0457175
0.0455867
0.0454126
0.0451907
0.0449123
0.0445715
0.044157
0.0436654
0.0430834
0.0424022
0.0415961
0.0406738
0.0395727
0.0383984
0.0365833
0.0426045
0.0423812
0.0423878
0.042349
0.0422788
0.0422138
0.0421645
0.0421289
0.0420779
0.0420396
0.0420443
0.0421057
0.0422088
0.0422997
0.0423469
0.0423589
0.0423517
0.0423385
0.042326
0.0423218
0.0423232
0.0423289
0.0423388
0.0423496
0.0423598
0.0423687
0.0423766
0.0423828
0.042386
0.0423867
0.042386
0.0423845
0.0423838
0.0423849
0.0423873
0.0423905
0.0423947
0.0424009
0.0424107
0.0424249
0.0424435
0.0424656
0.0424897
0.0425148
0.0425401
0.0425657
0.0425915
0.0426178
0.042645
0.0426732
0.0427025
0.0427334
0.0427659
0.0428
0.0428357
0.0428729
0.0429118
0.0429524
0.0429948
0.043039
0.0430852
0.0431336
0.0431843
0.0432374
0.0432928
0.0433507
0.043411
0.0434736
0.0435386
0.043606
0.0436756
0.0437476
0.0438218
0.0438982
0.0439769
0.0440577
0.0441405
0.0442253
0.044312
0.0444006
0.044491
0.0445831
0.0446767
0.0447717
0.0448677
0.0449647
0.0450625
0.0451608
0.0452594
0.045358
0.0454562
0.0455538
0.0456502
0.0457448
0.0458369
0.045926
0.0460113
0.0460919
0.0461666
0.0462341
0.0462932
0.0463409
0.0463765
0.0463972
0.0464022
0.0463836
0.0463393
0.046265
0.0461542
0.0460028
0.0458018
0.0455443
0.0452189
0.0448199
0.0443327
0.0437469
0.0430478
0.0422163
0.041237
0.0400995
0.0384628
0.0425609
0.0423854
0.0423998
0.0423759
0.0423167
0.0422508
0.0421909
0.0421345
0.0420657
0.0419957
0.0419521
0.0419596
0.0420299
0.0421426
0.0422394
0.0422901
0.0423092
0.0423068
0.0422965
0.0422917
0.0422929
0.0423001
0.0423128
0.042327
0.04234
0.0423514
0.0423621
0.0423715
0.0423786
0.0423826
0.0423849
0.0423867
0.0423892
0.0423932
0.0423984
0.0424041
0.0424106
0.0424187
0.0424298
0.0424452
0.0424651
0.0424888
0.0425149
0.0425421
0.0425697
0.0425975
0.0426256
0.0426542
0.0426835
0.0427139
0.0427455
0.0427787
0.0428135
0.0428501
0.0428883
0.042928
0.0429693
0.0430122
0.0430569
0.0431034
0.0431518
0.0432024
0.0432552
0.0433105
0.0433681
0.0434283
0.0434908
0.0435558
0.0436232
0.0436931
0.0437654
0.04384
0.043917
0.0439964
0.0440781
0.0441622
0.0442485
0.0443369
0.0444274
0.04452
0.0446148
0.0447115
0.04481
0.0449103
0.045012
0.0451152
0.0452195
0.0453249
0.0454311
0.045538
0.0456452
0.0457526
0.0458597
0.045966
0.046071
0.0461742
0.046275
0.0463728
0.0464665
0.0465552
0.0466376
0.0467122
0.0467777
0.0468304
0.0468696
0.0468923
0.0468973
0.0468748
0.046823
0.0467345
0.0466026
0.0464189
0.0461733
0.0458581
0.0454587
0.0449667
0.0443579
0.0436026
0.0427027
0.0416011
0.0401216
0.0425231
0.0423892
0.0424102
0.0423958
0.0423477
0.0422838
0.0422175
0.0421443
0.0420611
0.0419737
0.0418998
0.0418642
0.0418852
0.0419756
0.0421004
0.0421975
0.0422538
0.0422739
0.0422707
0.0422675
0.0422701
0.0422791
0.042293
0.0423087
0.0423231
0.0423357
0.0423477
0.0423594
0.0423696
0.0423773
0.0423826
0.0423871
0.0423923
0.042399
0.0424068
0.0424151
0.042424
0.0424342
0.0424471
0.0424639
0.0424853
0.0425105
0.0425385
0.0425678
0.0425976
0.0426276
0.0426579
0.0426886
0.0427201
0.0427526
0.0427864
0.0428217
0.0428588
0.0428977
0.0429383
0.0429804
0.043024
0.0430692
0.0431161
0.0431648
0.0432154
0.043268
0.043323
0.0433803
0.04344
0.0435023
0.043567
0.0436342
0.0437039
0.043776
0.0438507
0.0439278
0.0440074
0.0440894
0.044174
0.044261
0.0443503
0.044442
0.0445359
0.0446322
0.0447308
0.0448315
0.0449344
0.0450393
0.0451461
0.0452545
0.0453646
0.0454762
0.0455891
0.0457032
0.0458182
0.0459341
0.0460504
0.0461669
0.0462831
0.0463985
0.0465128
0.0466254
0.0467356
0.0468426
0.0469454
0.0470428
0.0471336
0.0472158
0.0472882
0.0473461
0.0473892
0.0474129
0.0474165
0.0473862
0.047322
0.0472113
0.0470496
0.0468238
0.0465207
0.0461302
0.0456212
0.0449706
0.0441723
0.0431622
0.0418154
0.042492
0.0423933
0.0424202
0.0424122
0.0423741
0.042312
0.0422392
0.0421531
0.0420587
0.041961
0.041869
0.0418061
0.0417875
0.0418305
0.0419453
0.0420781
0.0421779
0.0422295
0.0422435
0.0422486
0.0422563
0.042266
0.0422796
0.0422955
0.04231
0.0423229
0.0423354
0.0423482
0.0423604
0.0423706
0.0423787
0.0423859
0.0423937
0.042403
0.0424133
0.0424242
0.0424354
0.0424478
0.0424627
0.0424812
0.0425042
0.0425311
0.0425609
0.0425921
0.042624
0.0426562
0.0426885
0.0427213
0.0427549
0.0427894
0.0428252
0.0428627
0.0429019
0.042943
0.0429858
0.0430301
0.043076
0.0431234
0.0431725
0.0432232
0.0432758
0.0433305
0.0433874
0.0434467
0.0435084
0.0435726
0.0436394
0.0437086
0.0437804
0.0438547
0.0439315
0.0440109
0.0440928
0.0441773
0.0442643
0.0443539
0.0444461
0.0445406
0.0446376
0.0447371
0.0448391
0.0449434
0.0450501
0.0451591
0.0452702
0.0453834
0.0454984
0.0456154
0.0457341
0.0458544
0.0459762
0.0460993
0.0462236
0.0463489
0.0464746
0.0466005
0.0467262
0.0468515
0.0469758
0.0470985
0.0472187
0.0473357
0.0474482
0.0475552
0.0476551
0.0477456
0.0478254
0.0478886
0.0479353
0.0479596
0.0479617
0.0479197
0.0478403
0.047702
0.0475025
0.0472242
0.0468298
0.0462925
0.0455782
0.0446476
0.0434039
0.0424684
0.0423989
0.0424308
0.042427
0.042397
0.0423336
0.0422518
0.0421552
0.0420518
0.0419486
0.0418503
0.0417695
0.0417257
0.0417291
0.0418012
0.0419383
0.0420777
0.0421704
0.0422105
0.0422301
0.0422449
0.0422573
0.0422717
0.0422874
0.0423015
0.0423141
0.0423265
0.0423397
0.042353
0.042365
0.0423752
0.0423847
0.0423948
0.0424064
0.0424191
0.0424323
0.0424458
0.0424604
0.0424772
0.0424976
0.0425222
0.0425508
0.0425823
0.0426154
0.0426493
0.0426834
0.0427177
0.0427525
0.042788
0.0428245
0.0428623
0.0429017
0.042943
0.0429862
0.0430311
0.0430776
0.0431256
0.0431751
0.0432262
0.0432789
0.0433335
0.0433901
0.0434489
0.04351
0.0435736
0.0436397
0.0437083
0.0437795
0.0438532
0.0439294
0.0440083
0.0440897
0.0441738
0.0442604
0.0443497
0.0444417
0.0445364
0.0446335
0.0447332
0.0448355
0.0449405
0.045048
0.0451581
0.0452706
0.0453855
0.0455027
0.0456221
0.0457437
0.0458674
0.0459931
0.0461206
0.04625
0.0463811
0.0465137
0.0466475
0.0467823
0.0469177
0.0470537
0.0471898
0.0473256
0.0474605
0.0475939
0.047725
0.0478529
0.0479761
0.0480937
0.0482037
0.0483036
0.0483916
0.0484604
0.0485112
0.0485354
0.048532
0.0484708
0.0483625
0.0481796
0.0478966
0.0474842
0.0468763
0.0460595
0.0449161
0.0424549
0.0424051
0.0424415
0.042441
0.0424147
0.0423463
0.0422538
0.0421475
0.0420369
0.0419326
0.0418345
0.0417455
0.0416846
0.0416618
0.0416916
0.041801
0.0419587
0.0420927
0.0421682
0.0422089
0.0422328
0.0422485
0.0422638
0.0422795
0.0422936
0.0423062
0.042319
0.0423328
0.0423471
0.0423605
0.0423726
0.0423841
0.0423963
0.0424101
0.042425
0.0424402
0.0424558
0.0424724
0.0424913