/*--------------------------------*- C++ -*----------------------------------*\
| =========                 |                                                 |
| \\      /  F ield         | OpenFOAM: The Open Source CFD Toolbox           |
|  \\    /   O peration     | Version:  2412                                  |
|   \\  /    A nd           | Website:  www.openfoam.com                      |
|    \\/     M anipulation  |                                                 |
\*---------------------------------------------------------------------------*/
FoamFile
{
    version     2.0;
    format      ascii;
    arch        "LSB;label=32;scalar=64";
    class       volScalarField;
    location    "0.084";
    object      p;
}
// * * * * * * * * * * * * * * * * * * * * * * * * * * * * * * * * * * * * * //

dimensions      [1 -1 -2 0 0 0 0];

internalField   nonuniform List<scalar> 
9763
(
2851.76
2920.74
2851.42
2919.24
2851.16
2916.71
2850.78
2915.04
2850.44
2912.92
2850.02
2910.94
2849.6
2908.79
2849.14
2906.64
2848.69
2904.4
2848.22
2902.12
2847.7
2899.73
2847.16
2897.3
2846.59
2894.78
2845.98
2892.2
2845.37
2889.53
2844.69
2886.8
2844.01
2883.99
2843.26
2881.1
2842.49
2878.14
2841.65
2875.1
2840.78
2872
2839.85
2868.81
2838.87
2865.54
2837.84
2862.19
2836.77
2858.74
2835.65
2855.2
2834.51
2851.55
2833.33
2847.79
2832.14
2843.92
2830.9
2839.94
2829.62
2835.9
2828.24
2831.79
2826.76
2827.65
2825.2
2823.46
2823.52
2819.2
2821.73
2814.89
2819.81
2810.49
2817.78
2806.05
2815.62
2801.53
2813.34
2797.01
2792.41
2787.8
2783.14
4351.91
2906.74
2915.36
2921.3
2911.99
2901.51
2890.37
2881.87
2873.3
2865.45
2857.27
2848.89
2840.19
2831.48
2822.91
2814.62
2806.6
2798.84
2791.3
2783.92
2776.64
2769.41
2762.18
2754.97
2747.81
2740.72
2733.74
2726.89
2720.18
2713.61
2707.22
2701.08
2695.2
2689.62
2684.36
2679.44
2674.9
2670.72
2666.94
2663.55
2660.59
2658.06
2655.95
2654.27
2653.02
2652.19
2651.74
2651.64
2651.97
2652.7
2653.77
2655.16
2656.84
2658.83
2661.04
2663.54
2666.29
2669.31
2672.52
2675.84
2679.75
2683.18
2686.81
2690.96
2695.26
2699.44
2703.93
2708.47
2713.15
2717.88
2722.77
2727.73
2732.86
2738.05
2743.31
2748.48
2753.61
2758.53
2763.45
2768.18
2772.95
2777.66
2782.33
2787.11
2791.79
2796.53
2801.21
2805.98
2810.66
2815.38
2819.83
2824.22
2828.47
2832.59
2836.58
2840.42
2844.07
2847.55
2850.81
2853.89
2856.75
2859.42
2861.89
2864.11
2866.21
2867.95
2869.59
2870.92
2872.08
2873
2873.61
2874.05
2874.12
2873.93
2873.36
2872.39
2871.01
2869.14
2866.94
2866.49
2858.62
4351.79
2906.48
2914.76
2920.81
2911.61
2901.24
2890.15
2881.68
2873.14
2865.32
2857.16
2848.8
2840.12
2831.42
2822.85
2814.55
2806.53
2798.77
2791.21
2783.82
2776.53
2769.28
2762.03
2754.79
2747.59
2740.46
2733.44
2726.54
2719.77
2713.14
2706.69
2700.47
2694.52
2688.85
2683.5
2678.49
2673.84
2669.57
2665.68
2662.19
2659.12
2656.48
2654.26
2652.47
2651.11
2650.16
2649.6
2649.4
2649.59
2650.19
2651.15
2652.43
2653.99
2655.85
2657.94
2660.29
2662.92
2665.86
2668.98
2672.23
2676.06
2679.51
2683.01
2687.03
2691.26
2695.31
2699.66
2704.08
2708.62
2713.21
2717.95
2722.74
2727.68
2732.7
2737.8
2742.88
2747.94
2752.85
2757.74
2762.47
2767.23
2771.92
2776.57
2781.29
2785.88
2790.52
2795.1
2799.68
2804.12
2808.48
2812.64
2816.69
2820.62
2824.37
2828
2831.46
2834.75
2837.88
2840.8
2843.56
2846.11
2848.5
2850.69
2852.71
2854.62
2856.29
2857.92
2859.29
2860.61
2861.78
2862.73
2863.68
2864.45
2865.17
2865.75
2866.25
2866.64
2866.92
2867.15
2867.4
2867.47
4351.17
2906.15
2914.3
2920.5
2911.35
2901.01
2889.94
2881.5
2872.99
2865.19
2857.06
2848.71
2840.06
2831.37
2822.8
2814.5
2806.47
2798.7
2791.14
2783.74
2776.43
2769.16
2761.89
2754.62
2747.39
2740.21
2733.14
2726.19
2719.37
2712.67
2706.15
2699.85
2693.82
2688.07
2682.62
2677.51
2672.76
2668.38
2664.38
2660.78
2657.59
2654.83
2652.5
2650.6
2649.11
2648.04
2647.36
2647.05
2647.11
2647.57
2648.41
2649.55
2650.99
2652.71
2654.67
2656.88
2659.36
2662.15
2665.1
2668.18
2671.83
2675.15
2678.5
2682.33
2686.38
2690.27
2694.45
2698.7
2703.08
2707.52
2712.09
2716.68
2721.4
2726.15
2730.96
2735.76
2740.54
2745.18
2749.8
2754.28
2758.8
2763.23
2767.65
2772.11
2776.4
2780.72
2784.95
2789.17
2793.27
2797.32
2801.2
2804.95
2808.54
2811.94
2815.22
2818.31
2821.26
2824.03
2826.64
2829.09
2831.36
2833.49
2835.44
2837.24
2838.92
2840.41
2841.85
2843.05
2844.23
2845.25
2846.09
2846.92
2847.6
2848.25
2848.79
2849.3
2849.75
2850.19
2850.6
2851.02
2851.66
4351.22
2905.76
2913.85
2920.14
2911.06
2900.78
2889.74
2881.32
2872.84
2865.07
2856.96
2848.63
2839.99
2831.31
2822.75
2814.45
2806.41
2798.63
2791.06
2783.66
2776.34
2769.05
2761.76
2754.47
2747.2
2739.98
2732.87
2725.87
2718.99
2712.23
2705.64
2699.27
2693.16
2687.32
2681.78
2676.57
2671.72
2667.24
2663.13
2659.42
2656.12
2653.25
2650.81
2648.79
2647.19
2645.99
2645.19
2644.78
2644.71
2645.02
2645.74
2646.77
2648.08
2649.66
2651.5
2653.57
2655.92
2658.56
2661.34
2664.25
2667.76
2670.92
2674.12
2677.76
2681.64
2685.35
2689.36
2693.44
2697.64
2701.87
2706.2
2710.52
2714.94
2719.39
2723.91
2728.44
2732.97
2737.4
2741.78
2746.04
2750.28
2754.43
2758.57
2762.7
2766.66
2770.58
2774.37
2778.06
2781.61
2785.08
2788.39
2791.61
2794.68
2797.61
2800.42
2803.06
2805.6
2807.98
2810.24
2812.37
2814.37
2816.26
2818.01
2819.67
2821.21
2822.66
2824.03
2825.26
2826.47
2827.55
2828.5
2829.44
2830.28
2831.08
2831.81
2832.48
2833.12
2833.71
2834.25
2834.83
2835.53
4351.17
2905.46
2913.43
2919.8
2910.77
2900.55
2889.55
2881.15
2872.69
2864.95
2856.86
2848.56
2839.93
2831.26
2822.7
2814.39
2806.35
2798.57
2791
2783.58
2776.25
2768.95
2761.64
2754.32
2747.01
2739.77
2732.61
2725.56
2718.62
2711.81
2705.16
2698.71
2692.52
2686.6
2680.98
2675.67
2670.72
2666.14
2661.93
2658.11
2654.7
2651.71
2649.16
2647.03
2645.31
2643.99
2643.07
2642.55
2642.37
2642.54
2643.13
2644.03
2645.22
2646.68
2648.38
2650.33
2652.53
2655.02
2657.62
2660.35
2663.68
2666.67
2669.71
2673.19
2676.9
2680.43
2684.27
2688.17
2692.19
2696.25
2700.4
2704.53
2708.74
2712.95
2717.2
2721.44
2725.65
2729.78
2733.85
2737.82
2741.77
2745.64
2749.5
2753.34
2757.01
2760.64
2764.12
2767.49
2770.71
2773.84
2776.79
2779.64
2782.32
2784.86
2787.27
2789.53
2791.68
2793.69
2795.58
2797.35
2798.99
2800.53
2801.96
2803.31
2804.55
2805.74
2806.83
2807.89
2808.87
2809.74
2810.6
2811.38
2812.16
2812.87
2813.57
2814.21
2814.85
2815.44
2815.98
2816.54
2817.26
4351.46
2905.15
2913
2919.46
2910.49
2900.32
2889.35
2880.99
2872.55
2864.83
2856.76
2848.48
2839.87
2831.21
2822.65
2814.35
2806.3
2798.51
2790.93
2783.5
2776.16
2768.85
2761.52
2754.17
2746.84
2739.55
2732.35
2725.25
2718.27
2711.4
2704.68
2698.17
2691.9
2685.9
2680.19
2674.79
2669.74
2665.05
2660.74
2656.81
2653.3
2650.2
2647.53
2645.29
2643.46
2642.03
2640.99
2640.35
2640.06
2640.12
2640.55
2641.34
2642.41
2643.74
2645.32
2647.15
2649.22
2651.55
2653.98
2656.55
2659.7
2662.52
2665.41
2668.73
2672.28
2675.63
2679.3
2683.01
2686.85
2690.7
2694.63
2698.53
2702.5
2706.46
2710.48
2714.5
2718.48
2722.41
2726.26
2730.02
2733.73
2737.37
2740.98
2744.54
2747.92
2751.25
2754.4
2757.4
2760.27
2763.02
2765.62
2768.14
2770.48
2772.73
2774.84
2776.83
2778.7
2780.45
2782.1
2783.63
2785.05
2786.38
2787.6
2788.74
2789.78
2790.76
2791.68
2792.56
2793.35
2794.03
2794.74
2795.36
2795.97
2796.53
2797.07
2797.58
2798.07
2798.56
2798.97
2799.32
2799.17
4351.49
2904.83
2912.55
2919.11
2910.2
2900.09
2889.16
2880.82
2872.4
2864.71
2856.66
2848.4
2839.81
2831.16
2822.6
2814.3
2806.24
2798.45
2790.86
2783.43
2776.08
2768.75
2761.4
2754.03
2746.67
2739.34
2732.1
2724.95
2717.92
2710.99
2704.21
2697.62
2691.28
2685.2
2679.4
2673.9
2668.76
2663.97
2659.55
2655.51
2651.88
2648.67
2645.9
2643.54
2641.59
2640.04
2638.88
2638.12
2637.72
2637.65
2637.94
2638.6
2639.54
2640.74
2642.2
2643.9
2645.82
2647.99
2650.24
2652.63
2655.6
2658.24
2660.97
2664.13
2667.49
2670.67
2674.17
2677.7
2681.36
2685.05
2688.81
2692.52
2696.28
2700.01
2703.77
2707.52
2711.24
2714.9
2718.49
2722.03
2725.51
2728.96
2732.36
2735.72
2738.93
2742.07
2745.04
2747.87
2750.56
2753.12
2755.54
2757.86
2760.01
2762.07
2763.99
2765.79
2767.49
2769.08
2770.58
2771.97
2773.25
2774.45
2775.55
2776.57
2777.5
2778.38
2779.22
2779.99
2780.69
2781.32
2781.94
2782.5
2783.04
2783.55
2784.03
2784.49
2784.94
2785.38
2785.82
2786.4
2786.96
4351.61
2904.49
2912.08
2918.75
2909.9
2899.86
2888.96
2880.65
2872.26
2864.58
2856.56
2848.33
2839.75
2831.11
2822.56
2814.25
2806.19
2798.39
2790.79
2783.35
2775.99
2768.65
2761.28
2753.89
2746.49
2739.13
2731.84
2724.65
2717.56
2710.58
2703.74
2697.08
2690.65
2684.49
2678.6
2673.01
2667.76
2662.87
2658.34
2654.2
2650.45
2647.13
2644.23
2641.76
2639.69
2638.02
2636.74
2635.85
2635.35
2635.16
2635.3
2635.82
2636.63
2637.7
2639.02
2640.6
2642.38
2644.39
2646.46
2648.67
2651.46
2653.91
2656.47
2659.47
2662.65
2665.63
2668.93
2672.25
2675.69
2679.15
2682.68
2686.16
2689.7
2693.22
2696.76
2700.3
2703.79
2707.24
2710.61
2713.95
2717.21
2720.46
2723.63
2726.76
2729.74
2732.64
2735.35
2737.92
2740.36
2742.68
2744.88
2747.01
2748.98
2750.89
2752.66
2754.34
2755.92
2757.42
2758.83
2760.15
2761.38
2762.52
2763.58
2764.57
2765.46
2766.3
2767.1
2767.82
2768.48
2769.06
2769.63
2770.13
2770.61
2771.03
2771.43
2771.78
2772.11
2772.41
2772.74
2773.18
2774.34
4351.66
2904.14
2911.6
2918.38
2909.6
2899.62
2888.75
2880.47
2872.11
2864.46
2856.46
2848.25
2839.69
2831.06
2822.51
2814.2
2806.14
2798.33
2790.72
2783.27
2775.9
2768.55
2761.17
2753.75
2746.32
2738.92
2731.59
2724.35
2717.21
2710.17
2703.26
2696.53
2690.02
2683.77
2677.79
2672.11
2666.75
2661.75
2657.11
2652.85
2648.99
2645.55
2642.53
2639.94
2637.75
2635.95
2634.55
2633.53
2632.89
2632.6
2632.61
2632.96
2633.63
2634.56
2635.75
2637.18
2638.82
2640.65
2642.54
2644.57
2647.17
2649.42
2651.82
2654.64
2657.62
2660.4
2663.49
2666.6
2669.83
2673.08
2676.4
2679.68
2683
2686.29
2689.58
2692.83
2696.03
2699.2
2702.3
2705.39
2708.41
2711.47
2714.41
2717.35
2720.15
2722.86
2725.38
2727.77
2730.02
2732.14
2734.13
2736.05
2737.82
2739.54
2741.1
2742.58
2743.96
2745.26
2746.48
2747.6
2748.65
2749.62
2750.5
2751.3
2752.01
2752.67
2753.29
2753.81
2754.27
2754.69
2755.05
2755.36
2755.63
2755.84
2756.02
2756.16
2756.27
2756.35
2756.45
2756.69
2756.32
4351.79
2903.78
2911.11
2918
2909.29
2899.38
2888.55
2880.3
2871.96
2864.33
2856.36
2848.16
2839.62
2831
2822.46
2814.15
2806.08
2798.26
2790.65
2783.19
2775.82
2768.45
2761.05
2753.6
2746.15
2738.71
2731.34
2724.05
2716.85
2709.75
2702.77
2695.97
2689.39
2683.05
2676.98
2671.19
2665.73
2660.62
2655.87
2651.49
2647.51
2643.95
2640.81
2638.09
2635.78
2633.86
2632.32
2631.17
2630.4
2629.99
2629.87
2630.06
2630.59
2631.37
2632.41
2633.7
2635.19
2636.86
2638.58
2640.43
2642.86
2644.92
2647.13
2649.76
2652.54
2655.12
2657.98
2660.85
2663.83
2666.83
2669.89
2672.92
2676
2679.06
2682.12
2685.13
2688.09
2691.02
2693.87
2696.72
2699.49
2702.3
2704.97
2707.67
2710.21
2712.66
2714.92
2717.05
2719.05
2720.93
2722.7
2724.39
2725.95
2727.49
2728.87
2730.18
2731.4
2732.55
2733.62
2734.6
2735.52
2736.35
2737.1
2737.79
2738.39
2738.95
2739.43
2739.83
2740.21
2740.5
2740.77
2740.97
2741.14
2741.26
2741.35
2741.4
2741.42
2741.42
2741.41
2741.39
2741.13
4351.91
2903.41
2910.61
2917.62
2908.99
2899.14
2888.34
2880.12
2871.8
2864.21
2856.26
2848.08
2839.56
2830.95
2822.41
2814.09
2806.02
2798.2
2790.58
2783.11
2775.72
2768.34
2760.92
2753.46
2745.97
2738.5
2731.08
2723.74
2716.49
2709.33
2702.29
2695.41
2688.75
2682.32
2676.16
2670.27
2664.7
2659.48
2654.61
2650.11
2646.01
2642.32
2639.06
2636.21
2633.77
2631.72
2630.05
2628.77
2627.86
2627.32
2627.08
2627.12
2627.47
2628.11
2629
2630.14
2631.47
2632.97
2634.51
2636.18
2638.42
2640.29
2642.32
2644.73
2647.29
2649.65
2652.29
2654.93
2657.66
2660.42
2663.25
2666.05
2668.9
2671.73
2674.54
2677.29
2679.97
2682.61
2685.18
2687.76
2690.27
2692.84
2695.27
2697.75
2700.09
2702.33
2704.42
2706.37
2708.19
2709.88
2711.47
2712.96
2714.34
2715.71
2716.9
2718.06
2719.12
2720.12
2721.04
2721.89
2722.69
2723.41
2724.06
2724.64
2725.15
2725.62
2726.03
2726.38
2726.69
2726.94
2727.16
2727.32
2727.46
2727.55
2727.62
2727.65
2727.66
2727.64
2727.6
2727.51
2727.35
4352.08
2903.02
2910.11
2917.23
2908.67
2898.89
2888.12
2879.94
2871.65
2864.08
2856.15
2848
2839.49
2830.89
2822.36
2814.04
2805.97
2798.14
2790.51
2783.03
2775.63
2768.24
2760.8
2753.32
2745.8
2738.29
2730.83
2723.44
2716.14
2708.92
2701.81
2694.85
2688.11
2681.59
2675.33
2669.35
2663.67
2658.33
2653.34
2648.73
2644.5
2640.68
2637.29
2634.32
2631.75
2629.56
2627.76
2626.35
2625.3
2624.62
2624.26
2624.16
2624.35
2624.83
2625.57
2626.55
2627.72
2629.06
2630.43
2631.92
2634
2635.67
2637.51
2639.71
2642.03
2644.17
2646.57
2648.96
2651.42
2653.9
2656.44
2658.98
2661.57
2664.16
2666.75
2669.28
2671.75
2674.17
2676.51
2678.83
2681.08
2683.36
2685.53
2687.75
2689.83
2691.82
2693.69
2695.43
2697.06
2698.57
2700
2701.33
2702.57
2703.81
2704.88
2705.94
2706.91
2707.83
2708.67
2709.47
2710.2
2710.88
2711.49
2712.05
2712.54
2713
2713.41
2713.76
2714.08
2714.34
2714.58
2714.76
2714.93
2715.06
2715.17
2715.24
2715.3
2715.33
2715.35
2715.33
2715.26
4352.28
2902.62
2909.6
2916.84
2908.35
2898.64
2887.91
2879.76
2871.49
2863.95
2856.05
2847.91
2839.42
2830.84
2822.31
2813.99
2805.91
2798.07
2790.44
2782.95
2775.54
2768.13
2760.68
2753.17
2745.63
2738.08
2730.58
2723.14
2715.78
2708.5
2701.32
2694.3
2687.47
2680.86
2674.51
2668.42
2662.63
2657.18
2652.07
2647.33
2642.97
2639.02
2635.5
2632.4
2629.7
2627.38
2625.45
2623.89
2622.71
2621.88
2621.39
2621.17
2621.19
2621.51
2622.09
2622.91
2623.91
2625.07
2626.27
2627.59
2629.5
2630.98
2632.62
2634.58
2636.66
2638.58
2640.75
2642.91
2645.12
2647.35
2649.63
2651.9
2654.22
2656.54
2658.87
2661.15
2663.39
2665.57
2667.66
2669.73
2671.73
2673.76
2675.7
2677.71
2679.58
2681.37
2683.08
2684.67
2686.16
2687.53
2688.82
2690.02
2691.15
2692.26
2693.22
2694.19
2695.06
2695.9
2696.67
2697.4
2698.07
2698.7
2699.27
2699.8
2700.27
2700.71
2701.12
2701.47
2701.8
2702.08
2702.34
2702.56
2702.77
2702.93
2703.09
2703.21
2703.32
2703.41
2703.49
2703.55
2703.58
4352.51
2902.21
2909.08
2916.45
2908.03
2898.39
2887.69
2879.57
2871.33
2863.82
2855.94
2847.83
2839.36
2830.78
2822.26
2813.94
2805.86
2798.01
2790.36
2782.87
2775.45
2768.03
2760.56
2753.03
2745.46
2737.88
2730.33
2722.84
2715.43
2708.09
2700.84
2693.74
2686.83
2680.14
2673.68
2667.49
2661.59
2656.02
2650.8
2645.93
2641.44
2637.36
2633.71
2630.47
2627.64
2625.19
2623.12
2621.43
2620.11
2619.14
2618.51
2618.15
2618.04
2618.19
2618.62
2619.27
2620.1
2621.08
2622.11
2623.26
2625.02
2626.3
2627.75
2629.48
2631.31
2632.96
2634.87
2636.77
2638.7
2640.67
2642.68
2644.69
2646.75
2648.83
2650.91
2652.98
2655.01
2656.98
2658.85
2660.68
2662.43
2664.2
2665.89
2667.66
2669.27
2670.84
2672.36
2673.77
2675.1
2676.33
2677.51
2678.6
2679.65
2680.67
2681.56
2682.48
2683.3
2684.09
2684.82
2685.53
2686.17
2686.79
2687.35
2687.88
2688.35
2688.81
2689.24
2689.62
2689.98
2690.3
2690.61
2690.88
2691.14
2691.36
2691.58
2691.77
2691.95
2692.11
2692.26
2692.41
2692.56
4352.81
2901.78
2908.56
2916.05
2907.71
2898.13
2887.48
2879.39
2871.17
2863.68
2855.83
2847.74
2839.29
2830.72
2822.21
2813.89
2805.8
2797.95
2790.29
2782.79
2775.35
2767.92
2760.44
2752.89
2745.29
2737.67
2730.08
2722.54
2715.07
2707.68
2700.37
2693.19
2686.19
2679.41
2672.86
2666.56
2660.56
2654.87
2649.52
2644.52
2639.91
2635.69
2631.9
2628.54
2625.57
2622.99
2620.78
2618.95
2617.48
2616.38
2615.59
2615.1
2614.86
2614.86
2615.11
2615.6
2616.25
2617.05
2617.9
2618.89
2620.47
2621.55
2622.8
2624.3
2625.89
2627.3
2628.96
2630.64
2632.33
2634.06
2635.82
2637.57
2639.36
2641.15
2642.96
2644.76
2646.55
2648.29
2649.92
2651.52
2653.05
2654.58
2656.06
2657.62
2659.03
2660.41
2661.77
2663.02
2664.22
2665.32
2666.39
2667.39
2668.36
2669.28
2670.11
2670.98
2671.72
2672.46
2673.14
2673.81
2674.41
2675
2675.53
2676.04
2676.5
2676.95
2677.39
2677.77
2678.15
2678.49
2678.82
2679.12
2679.41
2679.68
2679.94
2680.18
2680.4
2680.62
2680.83
2681.03
2681.27
4353.05
2901.34
2908.04
2915.64
2907.38
2897.87
2887.26
2879.2
2871.01
2863.55
2855.72
2847.66
2839.22
2830.67
2822.15
2813.84
2805.75
2797.89
2790.22
2782.71
2775.26
2767.82
2760.32
2752.75
2745.12
2737.47
2729.83
2722.25
2714.73
2707.27
2699.89
2692.64
2685.56
2678.69
2672.04
2665.64
2659.52
2653.72
2648.24
2643.12
2638.37
2634.03
2630.1
2626.6
2623.49
2620.78
2618.44
2616.47
2614.86
2613.61
2612.68
2612.04
2611.67
2611.53
2611.62
2611.94
2612.42
2613.04
2613.73
2614.57
2615.95
2616.79
2617.86
2619.12
2620.49
2621.68
2623.1
2624.53
2625.96
2627.44
2628.94
2630.43
2631.94
2633.47
2635.01
2636.55
2638.1
2639.61
2641.02
2642.39
2643.68
2644.98
2646.23
2647.57
2648.75
2649.93
2651.1
2652.18
2653.22
2654.2
2655.17
2656.08
2656.98
2657.82
2658.6
2659.43
2660.12
2660.82
2661.47
2662.1
2662.68
2663.25
2663.77
2664.28
2664.73
2665.17
2665.63
2666.03
2666.42
2666.78
2667.13
2667.47
2667.79
2668.1
2668.39
2668.67
2668.94
2669.21
2669.46
2669.71
2670.02
4353.51
2900.89
2907.5
2915.23
2907.05
2897.61
2887.04
2879.01
2870.85
2863.42
2855.61
2847.57
2839.15
2830.61
2822.1
2813.79
2805.7
2797.83
2790.15
2782.63
2775.17
2767.71
2760.2
2752.6
2744.95
2737.27
2729.59
2721.96
2714.38
2706.86
2699.42
2692.09
2684.93
2677.97
2671.23
2664.72
2658.49
2652.57
2646.97
2641.72
2636.83
2632.35
2628.29
2624.65
2621.41
2618.55
2616.07
2613.97
2612.22
2610.82
2609.75
2608.97
2608.45
2608.18
2608.12
2608.25
2608.55
2608.99
2609.53
2610.21
2611.37
2611.96
2612.85
2613.9
2615.06
2616.02
2617.21
2618.41
2619.61
2620.83
2622.05
2623.26
2624.49
2625.74
2627.01
2628.28
2629.57
2630.83
2632.02
2633.18
2634.28
2635.38
2636.43
2637.56
2638.53
2639.55
2640.55
2641.44
2642.35
2643.22
2644.09
2644.91
2645.72
2646.47
2647.2
2647.95
2648.57
2649.21
2649.81
2650.39
2650.93
2651.46
2651.95
2652.43
2652.86
2653.29
2653.74
2654.12
2654.51
2654.86
2655.21
2655.55
2655.87
2656.18
2656.48
2656.78
2657.06
2657.34
2657.62
2657.89
2658.23
4353.8
2900.43
2906.96
2914.82
2906.72
2897.35
2886.81
2878.83
2870.69
2863.28
2855.5
2847.49
2839.09
2830.56
2822.06
2813.74
2805.64
2797.77
2790.09
2782.55
2775.08
2767.61
2760.08
2752.46
2744.78
2737.07
2729.35
2721.67
2714.04
2706.46
2698.95
2691.55
2684.31
2677.26
2670.42
2663.81
2657.47
2651.42
2645.7
2640.32
2635.3
2630.68
2626.48
2622.7
2619.32
2616.33
2613.71
2611.47
2609.58
2608.04
2606.82
2605.9
2605.23
2604.83
2604.63
2604.59
2604.7
2604.97
2605.36
2605.86
2606.82
2607.17
2607.87
2608.69
2609.63
2610.34
2611.28
2612.24
2613.2
2614.21
2615.2
2616.16
2617.12
2618.08
2619.06
2620.05
2621.06
2622.07
2623.03
2623.98
2624.87
2625.76
2626.61
2627.52
2628.3
2629.13
2629.95
2630.67
2631.41
2632.14
2632.88
2633.6
2634.32
2634.99
2635.65
2636.32
2636.87
2637.46
2638.01
2638.55
2639.06
2639.56
2640.02
2640.49
2640.89
2641.31
2641.74
2642.12
2642.49
2642.85
2643.2
2643.54
2643.86
2644.18
2644.49
2644.79
2645.09
2645.38
2645.67
2645.96
2646.32
4354.34
2899.95
2906.41
2914.4
2906.38
2897.09
2886.59
2878.64
2870.53
2863.15
2855.39
2847.4
2839.02
2830.5
2822.01
2813.69
2805.59
2797.71
2790.02
2782.47
2774.99
2767.51
2759.96
2752.32
2744.62
2736.87
2729.11
2721.38
2713.7
2706.07
2698.49
2691.01
2683.69
2676.55
2669.61
2662.9
2656.44
2650.28
2644.43
2638.91
2633.76
2629
2624.66
2620.74
2617.22
2614.09
2611.34
2608.95
2606.92
2605.24
2603.88
2602.81
2602
2601.44
2601.1
2600.91
2600.84
2600.94
2601.17
2601.48
2602.23
2602.36
2602.88
2603.47
2604.19
2604.68
2605.38
2606.1
2606.83
2607.6
2608.34
2609.04
2609.74
2610.45
2611.17
2611.89
2612.63
2613.36
2614.06
2614.76
2615.44
2616.11
2616.76
2617.49
2618.09
2618.75
2619.39
2619.95
2620.55
2621.15
2621.74
2622.33
2622.93
2623.51
2624.08
2624.65
2625.14
2625.67
2626.15
2626.62
2627.07
2627.52
2627.93
2628.35
2628.72
2629.12
2629.5
2629.84
2630.2
2630.53
2630.86
2631.18
2631.48
2631.79
2632.08
2632.37
2632.66
2632.94
2633.23
2633.52
2633.87
4354.71
2899.46
2905.86
2913.98
2906.04
2896.82
2886.36
2878.45
2870.37
2863.01
2855.28
2847.31
2838.95
2830.45
2821.96
2813.64
2805.54
2797.65
2789.95
2782.4
2774.9
2767.4
2759.84
2752.19
2744.46
2736.68
2728.88
2721.1
2713.37
2705.67
2698.03
2690.48
2683.07
2675.84
2668.81
2661.99
2655.42
2649.14
2643.16
2637.52
2632.23
2627.33
2622.85
2618.78
2615.12
2611.85
2608.96
2606.43
2604.27
2602.45
2600.94
2599.73
2598.78
2598.07
2597.57
2597.23
2597.01
2596.94
2597
2597.14
2597.72
2597.64
2597.95
2598.3
2598.81
2599.07
2599.54
2600
2600.48
2600.99
2601.46
2601.9
2602.34
2602.8
2603.26
2603.74
2604.25
2604.74
2605.2
2605.67
2606.1
2606.54
2606.96
2607.44
2607.84
2608.31
2608.74
2609.13
2609.56
2610.01
2610.46
2610.92
2611.39
2611.86
2612.33
2612.81
2613.23
2613.69
2614.1
2614.51
2614.9
2615.28
2615.66
2616.03
2616.37
2616.73
2617.08
2617.38
2617.71
2618.02
2618.33
2618.63
2618.92
2619.22
2619.49
2619.78
2620.05
2620.33
2620.61
2620.89
2621.23
4355.32
2898.96
2905.3
2913.55
2905.7
2896.55
2886.14
2878.25
2870.2
2862.88
2855.17
2847.23
2838.88
2830.39
2821.91
2813.6
2805.49
2797.6
2789.89
2782.32
2774.82
2767.31
2759.72
2752.05
2744.3
2736.48
2728.65
2720.82
2713.03
2705.28
2697.58
2689.96
2682.46
2675.14
2668.01
2661.09
2654.41
2648.01
2641.9
2636.12
2630.69
2625.65
2621.02
2616.82
2613.02
2609.6
2606.57
2603.9
2601.6
2599.64
2597.99
2596.63
2595.54
2594.69
2594.03
2593.53
2593.17
2592.93
2592.8
2592.76
2593.22
2592.94
2593.02
2593.14
2593.45
2593.53
2593.8
2594.02
2594.23
2594.44
2594.63
2594.8
2594.97
2595.16
2595.36
2595.58
2595.84
2596.09
2596.32
2596.56
2596.77
2596.99
2597.19
2597.45
2597.64
2597.92
2598.15
2598.35
2598.61
2598.88
2599.17
2599.48
2599.82
2600.17
2600.52
2600.9
2601.21
2601.58
2601.9
2602.23
2602.54
2602.85
2603.15
2603.46
2603.74
2604.05
2604.33
2604.6
2604.87
2605.15
2605.42
2605.69
2605.95
2606.22
2606.47
2606.73
2606.98
2607.24
2607.51
2607.77
2608.08
4355.81
2898.45
2904.73
2913.12
2905.35
2896.28
2885.91
2878.06
2870.04
2862.74
2855.06
2847.14
2838.81
2830.33
2821.86
2813.55
2805.44
2797.54
2789.83
2782.25
2774.74
2767.21
2759.61
2751.92
2744.14
2736.29
2728.42
2720.55
2712.71
2704.9
2697.13
2689.43
2681.86
2674.45
2667.22
2660.2
2653.4
2646.88
2640.65
2634.73
2629.16
2623.98
2619.2
2614.85
2610.91
2607.35
2604.17
2601.37
2598.93
2596.82
2595.04
2593.54
2592.31
2591.31
2590.5
2589.85
2589.35
2588.97
2588.66
2588.45
2588.73
2588.25
2588.11
2587.97
2588.08
2587.96
2588.03
2588.05
2588.03
2588.01
2587.96
2587.88
2587.76
2587.65
2587.55
2587.49
2587.48
2587.48
2587.47
2587.48
2587.46
2587.44
2587.41
2587.44
2587.4
2587.48
2587.48
2587.48
2587.55
2587.64
2587.76
2587.91
2588.09
2588.31
2588.52
2588.77
2588.97
2589.24
2589.46
2589.7
2589.92
2590.16
2590.39
2590.63
2590.86
2591.11
2591.31
2591.53
2591.76
2592
2592.23
2592.47
2592.7
2592.93
2593.16
2593.39
2593.61
2593.85
2594.09
2594.35
2594.63
4356.45
2897.93
2904.15
2912.68
2905
2896.01
2885.68
2877.87
2869.87
2862.6
2854.95
2847.05
2838.74
2830.28
2821.81
2813.5
2805.39
2797.49
2789.77
2782.18
2774.65
2767.11
2759.5
2751.79
2743.98
2736.1
2728.19
2720.28
2712.39
2704.52
2696.69
2688.92
2681.26
2673.76
2666.44
2659.3
2652.4
2645.75
2639.39
2633.34
2627.63
2622.3
2617.38
2612.88
2608.79
2605.09
2601.77
2598.82
2596.24
2594
2592.07
2590.43
2589.06
2587.92
2586.96
2586.17
2585.52
2585
2584.53
2584.15
2584.24
2583.55
2583.21
2582.84
2582.74
2582.43
2582.3
2582.1
2581.86
2581.59
2581.32
2581.02
2580.66
2580.29
2579.89
2579.53
2579.22
2578.93
2578.67
2578.44
2578.18
2577.94
2577.68
2577.47
2577.22
2577.09
2576.86
2576.64
2576.5
2576.39
2576.33
2576.31
2576.32
2576.38
2576.44
2576.55
2576.62
2576.75
2576.85
2576.98
2577.09
2577.24
2577.37
2577.52
2577.68
2577.87
2577.94
2578.1
2578.27
2578.45
2578.63
2578.8
2578.99
2579.17
2579.36
2579.55
2579.74
2579.93
2580.14
2580.36
2580.61
4357.1
2897.4
2903.57
2912.24
2904.65
2895.73
2885.44
2877.67
2869.7
2862.46
2854.84
2846.96
2838.67
2830.22
2821.76
2813.45
2805.34
2797.44
2789.71
2782.11
2774.58
2767.02
2759.39
2751.66
2743.83
2735.92
2727.97
2720.01
2712.07
2704.14
2696.25
2688.41
2680.67
2673.08
2665.66
2658.42
2651.4
2644.63
2638.14
2631.96
2626.11
2620.63
2615.56
2610.91
2606.67
2602.82
2599.36
2596.27
2593.55
2591.16
2589.1
2587.32
2585.81
2584.53
2583.44
2582.51
2581.72
2581.06
2580.43
2579.89
2579.8
2578.91
2578.39
2577.8
2577.5
2576.97
2576.61
2576.18
2575.69
2575.19
2574.68
2574.16
2573.59
2572.98
2572.32
2571.67
2571.06
2570.49
2569.94
2569.46
2568.96
2568.48
2567.99
2567.54
2567.05
2566.7
2566.22
2565.77
2565.4
2565.08
2564.8
2564.58
2564.4
2564.29
2564.17
2564.12
2564.05
2564.04
2564.02
2564.02
2564.02
2564.05
2564.08
2564.14
2564.2
2564.32
2564.28
2564.37
2564.48
2564.59
2564.7
2564.81
2564.93
2565.06
2565.2
2565.34
2565.49
2565.64
2565.78
2565.93
2566.17
4357.8
2896.86
2902.97
2911.79
2904.29
2895.45
2885.21
2877.47
2869.53
2862.32
2854.72
2846.87
2838.61
2830.17
2821.71
2813.4
2805.29
2797.38
2789.65
2782.04
2774.5
2766.93
2759.29
2751.53
2743.68
2735.74
2727.75
2719.75
2711.75
2703.77
2695.81
2687.9
2680.08
2672.4
2664.88
2657.54
2650.4
2643.51
2636.9
2630.58
2624.58
2618.95
2613.73
2608.93
2604.54
2600.55
2596.94
2593.7
2590.84
2588.32
2586.11
2584.2
2582.55
2581.13
2579.9
2578.83
2577.91
2577.1
2576.32
2575.62
2575.35
2574.27
2573.63
2572.86
2572.4
2571.67
2571.07
2570.39
2569.62
2568.86
2568.13
2567.38
2566.59
2565.75
2564.84
2563.91
2563.01
2562.14
2561.3
2560.54
2559.78
2559.05
2558.33
2557.64
2556.93
2556.35
2555.63
2554.95
2554.35
2553.79
2553.29
2552.85
2552.46
2552.15
2551.84
2551.61
2551.37
2551.2
2551.03
2550.88
2550.73
2550.63
2550.52
2550.46
2550.41
2550.42
2550.27
2550.27
2550.29
2550.31
2550.33
2550.37
2550.41
2550.47
2550.54
2550.62
2550.72
2550.82
2550.93
2551.05
2551.13
4358.54
2896.31
2902.37
2911.33
2903.93
2895.17
2884.97
2877.27
2869.36
2862.18
2854.61
2846.78
2838.54
2830.11
2821.66
2813.36
2805.24
2797.33
2789.59
2781.98
2774.42
2766.84
2759.18
2751.41
2743.53
2735.56
2727.53
2719.49
2711.44
2703.41
2695.38
2687.4
2679.5
2671.73
2664.11
2656.66
2649.41
2642.4
2635.66
2629.2
2623.06
2617.28
2611.9
2606.95
2602.41
2598.27
2594.51
2591.13
2588.12
2585.46
2583.12
2581.07
2579.29
2577.73
2576.36
2575.17
2574.11
2573.16
2572.25
2571.38
2570.93
2569.66
2568.87
2567.93
2567.3
2566.38
2565.58
2564.68
2563.69
2562.7
2561.71
2560.71
2559.67
2558.61
2557.46
2556.28
2555.1
2553.94
2552.82
2551.77
2550.73
2549.73
2548.75
2547.8
2546.85
2546.02
2545.05
2544.13
2543.27
2542.46
2541.71
2541.03
2540.42
2539.88
2539.37
2538.95
2538.52
2538.17
2537.82
2537.51
2537.21
2536.95
2536.7
2536.5
2536.33
2536.21
2535.96
2535.85
2535.76
2535.67
2535.6
2535.55
2535.51
2535.49
2535.49
2535.49
2535.53
2535.58
2535.7
2535.88
2535.69
4359.33
2895.74
2901.76
2910.87
2903.57
2894.88
2884.73
2877.07
2869.19
2862.04
2854.49
2846.69
2838.46
2830.05
2821.61
2813.31
2805.19
2797.28
2789.53
2781.91
2774.34
2766.75
2759.08
2751.29
2743.38
2735.39
2727.32
2719.23
2711.14
2703.05
2694.96
2686.9
2678.93
2671.06
2663.35
2655.79
2648.43
2641.29
2634.42
2627.83
2621.54
2615.61
2610.07
2604.96
2600.27
2595.98
2592.07
2588.55
2585.39
2582.59
2580.11
2577.93
2576.01
2574.31
2572.81
2571.49
2570.3
2569.21
2568.16
2567.14
2566.52
2565.06
2564.17
2563.07
2562.29
2561.17
2560.15
2559.03
2557.82
2556.62
2555.39
2554.14
2552.84
2551.52
2550.14
2548.72
2547.28
2545.86
2544.46
2543.12
2541.79
2540.51
2539.27
2538.06
2536.86
2535.78
2534.56
2533.38
2532.27
2531.21
2530.2
2529.26
2528.4
2527.62
2526.89
2526.24
2525.6
2525.03
2524.48
2523.97
2523.49
2523.05
2522.64
2522.28
2521.95
2521.68
2521.3
2521.05
2520.82
2520.6
2520.4
2520.24
2520.08
2519.97
2519.85
2519.77
2519.7
2519.67
2519.73
2519.92
2519.46
4360.15
2895.16
2901.14
2910.4
2903.2
2894.59
2884.48
2876.87
2869.02
2861.9
2854.38
2846.6
2838.39
2829.99
2821.56
2813.26
2805.14
2797.22
2789.48
2781.85
2774.27
2766.67
2758.98
2751.17
2743.24
2735.21
2727.11
2718.98
2710.84
2702.69
2694.54
2686.41
2678.35
2670.4
2662.59
2654.93
2647.45
2640.19
2633.19
2626.46
2620.02
2613.94
2608.24
2602.98
2598.13
2593.68
2589.62
2585.95
2582.66
2579.72
2577.1
2574.78
2572.73
2570.9
2569.27
2567.81
2566.5
2565.27
2564.1
2562.93
2562.18
2560.54
2559.54
2558.28
2557.33
2556.02
2554.78
2553.45
2552.05
2550.65
2549.19
2547.7
2546.14
2544.58
2542.95
2541.3
2539.62
2537.95
2536.28
2534.65
2533.03
2531.45
2529.92
2528.42
2526.96
2525.58
2524.11
2522.67
2521.29
2519.96
2518.69
2517.49
2516.37
2515.33
2514.35
2513.45
2512.57
2511.76
2511
2510.28
2509.6
2508.97
2508.37
2507.83
2507.32
2506.89
2506.35
2505.94
2505.55
2505.2
2504.86
2504.57
2504.28
2504.05
2503.82
2503.62
2503.45
2503.33
2503.31
2503.5
2502.75
4361
2894.56
2900.51
2909.92
2902.82
2894.3
2884.24
2876.67
2868.84
2861.75
2854.26
2846.5
2838.32
2829.94
2821.51
2813.21
2805.09
2797.17
2789.42
2781.78
2774.2
2766.58
2758.88
2751.05
2743.1
2735.04
2726.91
2718.73
2710.54
2702.33
2694.12
2685.93
2677.79
2669.75
2661.83
2654.07
2646.47
2639.09
2631.96
2625.09
2618.51
2612.27
2606.41
2600.98
2595.97
2591.37
2587.16
2583.34
2579.9
2576.82
2574.07
2571.61
2569.43
2567.48
2565.72
2564.13
2562.69
2561.33
2560.03
2558.73
2557.86
2556.05
2554.94
2553.54
2552.43
2550.92
2549.48
2547.95
2546.37
2544.78
2543.11
2541.4
2539.6
2537.78
2535.91
2534.02
2532.11
2530.19
2528.26
2526.36
2524.45
2522.59
2520.77
2518.97
2517.23
2515.54
2513.82
2512.12
2510.47
2508.87
2507.32
2505.85
2504.45
2503.12
2501.88
2500.7
2499.57
2498.5
2497.49
2496.54
2495.63
2494.77
2493.96
2493.21
2492.5
2491.88
2491.14
2490.54
2489.97
2489.44
2488.94
2488.49
2488.06
2487.68
2487.31
2487
2486.7
2486.47
2486.37
2486.54
2485.52
4361.9
2893.94
2899.87
2909.44
2902.44
2894
2883.99
2876.46
2868.67
2861.6
2854.14
2846.41
2838.25
2829.88
2821.46
2813.16
2805.04
2797.12
2789.36
2781.72
2774.12
2766.5
2758.78
2750.93
2742.96
2734.88
2726.7
2718.48
2710.24
2701.98
2693.71
2685.45
2677.22
2669.1
2661.08
2653.21
2645.5
2638
2630.73
2623.72
2617
2610.6
2604.58
2598.99
2593.82
2589.06
2584.7
2580.73
2577.14
2573.91
2571.02
2568.44
2566.13
2564.05
2562.17
2560.45
2558.89
2557.4
2555.98
2554.56
2553.59
2551.63
2550.41
2548.87
2547.62
2545.95
2544.31
2542.57
2540.79
2539
2537.12
2535.2
2533.18
2531.14
2529.03
2526.91
2524.77
2522.6
2520.42
2518.25
2516.06
2513.91
2511.79
2509.69
2507.67
2505.65
2503.69
2501.71
2499.79
2497.9
2496.08
2494.32
2492.62
2491.01
2489.47
2488.02
2486.61
2485.27
2484.01
2482.79
2481.63