/*--------------------------------*- C++ -*----------------------------------*\
| =========                 |                                                 |
| \\      /  F ield         | OpenFOAM: The Open Source CFD Toolbox           |
|  \\    /   O peration     | Version:  2412                                  |
|   \\  /    A nd           | Website:  www.openfoam.com                      |
|    \\/     M anipulation  |                                                 |
\*---------------------------------------------------------------------------*/
FoamFile
{
    version     2.0;
    format      ascii;
    arch        "LSB;label=32;scalar=64";
    class       volScalarField;
    location    "0.097";
    object      p;
}
// * * * * * * * * * * * * * * * * * * * * * * * * * * * * * * * * * * * * * //

dimensions      [1 -1 -2 0 0 0 0];

internalField   nonuniform List<scalar> 
9831
(
3527.37
2952.23
2910.88
2894.67
2879.6
2867.64
2857.97
2850.12
2843.76
2838.11
2832.63
2827
2821.04
2815.02
2809.65
2805.41
2802.42
2800.37
2798.79
2797.26
2795.48
2793.17
2790.23
2786.71
2782.77
2778.59
2774.36
2770.26
2766.41
2762.78
2759.34
2756.04
2752.89
2749.9
2747.11
2744.54
2742.2
2740.08
2738.12
2736.31
2734.61
2732.99
2731.45
2730
2728.67
2727.45
2726.35
2725.37
2724.51
2723.75
2723.08
2722.49
2721.96
2721.5
2721.1
2720.76
2720.44
2720.15
2719.88
2719.6
2719.31
2718.99
2718.6
2718.12
2717.52
2716.76
2715.8
2714.61
2713.13
2711.34
2709.17
2706.57
2703.48
2699.84
2695.57
2690.58
2684.79
2678.1
2670.4
2661.56
2651.46
2640
2627.05
2612.49
2596.12
2577.78
2557.27
2534.52
2509.29
2481.6
2451.24
2418.32
2382.34
2343.68
2301.42
2256.7
2208.52
2157.84
2105.04
2049.01
1991.04
1931.18
1870.12
1810.5
1750.89
1691.59
1634.41
1577.03
1522.41
1472.83
1426.81
1385.94
1347.93
1311.97
1277.12
1243.63
1215.27
1191.03
1170.86
1154.86
1119.12
3485.27
2943.13
2910.25
2895.25
2880.32
2868.17
2858.25
2850.37
2844.2
2838.88
2833.79
2828.54
2822.85
2816.9
2811.37
2806.79
2803.39
2801.01
2799.25
2797.71
2796.06
2794
2791.38
2788.15
2784.43
2780.38
2776.22
2772.14
2768.3
2764.7
2761.31
2758.09
2755.03
2752.14
2749.44
2746.98
2744.74
2742.72
2740.89
2739.23
2737.68
2736.23
2734.87
2733.6
2732.44
2731.39
2730.48
2729.69
2729.03
2728.47
2728.02
2727.65
2727.36
2727.14
2727
2726.92
2726.89
2726.89
2726.93
2726.98
2727.03
2727.06
2727.07
2727
2726.84
2726.56
2726.13
2725.48
2724.61
2723.46
2721.98
2720.13
2717.86
2715.1
2711.79
2707.84
2703.18
2697.72
2691.36
2683.98
2675.46
2665.7
2654.57
2641.97
2627.7
2611.62
2593.53
2573.34
2550.84
2525.96
2498.42
2468.13
2434.72
2398.55
2359.08
2317.35
2272.26
2224.8
2174.21
2120.26
2063.13
2004.18
1945.45
1885.39
1824.45
1762.23
1702.35
1645.44
1589.4
1537.07
1484.08
1436.17
1392.61
1353.08
1316.48
1280.19
1246.62
1216
1190.93
1170.39
1130.36
3444.04
2938.62
2909.42
2895.7
2880.62
2868.17
2858.23
2850.35
2844.22
2839.08
2834.45
2829.73
2824.49
2818.79
2813.22
2808.37
2804.56
2801.8
2799.8
2798.19
2796.61
2794.78
2792.46
2789.55
2786.09
2782.21
2778.13
2774.09
2770.25
2766.68
2763.34
2760.19
2757.21
2754.42
2751.82
2749.45
2747.32
2745.42
2743.72
2742.19
2740.8
2739.52
2738.34
2737.25
2736.26
2735.4
2734.67
2734.08
2733.61
2733.27
2733.03
2732.89
2732.84
2732.87
2732.98
2733.17
2733.42
2733.72
2734.06
2734.43
2734.83
2735.23
2735.62
2735.97
2736.25
2736.44
2736.5
2736.41
2736.12
2735.6
2734.8
2733.69
2732.2
2730.28
2727.89
2724.94
2721.35
2717.05
2711.94
2705.92
2698.87
2690.68
2681.24
2670.44
2658.13
2644.16
2628.33
2610.5
2590.45
2568.14
2543.33
2515.96
2485.75
2452.84
2416.76
2377.99
2335.51
2290.41
2241.75
2190.55
2136.75
2079.73
2020.48
1958.77
1896.6
1834.8
1773.56
1714.18
1651.86
1595.53
1539.93
1485.1
1435.46
1389.58
1350.22
1314.2
1279.56
1245.39
1214.69
1188.58
1139.46
3405.1
2932.33
2907.34
2894.88
2880.48
2868.03
2857.94
2850
2843.94
2838.95
2834.56
2830.34
2825.7
2820.48
2815.1
2810.11
2805.94
2802.76
2800.44
2798.68
2797.14
2795.5
2793.47
2790.9
2787.74
2784.1
2780.14
2776.13
2772.31
2768.75
2765.45
2762.36
2759.47
2756.77
2754.28
2752.01
2749.99
2748.2
2746.62
2745.23
2743.99
2742.88
2741.87
2740.96
2740.16
2739.49
2738.94
2738.54
2738.27
2738.13
2738.11
2738.19
2738.37
2738.64
2739
2739.45
2739.97
2740.56
2741.2
2741.89
2742.62
2743.37
2744.13
2744.88
2745.59
2746.23
2746.77
2747.2
2747.46
2747.55
2747.4
2746.99
2746.27
2745.16
2743.64
2741.64
2739.09
2735.91
2732.02
2727.34
2721.73
2715.1
2707.35
2698.37
2688.03
2676.17
2662.59
2647.17
2629.71
2610.14
2588.19
2563.72
2536.44
2506.4
2473.24
2437.28
2397.84
2355.87
2310.28
2262.02
2210.22
2154.96
2097.01
2036.17
1974.55
1912.34
1847.24
1785.33
1720.84
1656.81
1600.13
1542.6
1489.49
1436.94
1386.66
1343.73
1307.45
1275.22
1246.34
1220.23
1168.82
3363.33
2926.18
2904.96
2893.84
2880.04
2867.52
2857.28
2849.26
2843.28
2838.5
2834.36
2830.4
2826.28
2821.69
2816.74
2811.84
2807.44
2803.88
2801.2
2799.23
2797.66
2796.17
2794.43
2792.2
2789.38
2786
2782.2
2778.26
2774.46
2770.92
2767.65
2764.62
2761.8
2759.19
2756.81
2754.65
2752.75
2751.07
2749.62
2748.37
2747.28
2746.33
2745.5
2744.77
2744.16
2743.67
2743.32
2743.11
2743.04
2743.1
2743.3
2743.6
2744.01
2744.52
2745.13
2745.84
2746.63
2747.5
2748.44
2749.45
2750.5
2751.6
2752.73
2753.87
2754.99
2756.08
2757.1
2758.03
2758.84
2759.5
2759.97
2760.21
2760.24
2759.92
2759.26
2758.17
2756.6
2754.48
2751.73
2748.29
2744.04
2738.87
2732.68
2725.37
2716.83
2706.92
2695.46
2682.32
2667.29
2650.25
2630.99
2609.39
2585.25
2558.52
2528.81
2496.19
2460.04
2420.96
2378.1
2332.56
2283.34
2231.31
2176.04
2117.35
2055.58
1993.15
1927.93
1861.04
1799.61
1734.64
1671.79
1609.94
1550.83
1497.84
1444.55
1392.88
1345.15
1302.18
1266.35
1236.34
1176.09
3319.28
2922.42
2902.95
2892.67
2879.53
2866.97
2856.53
2848.34
2842.26
2837.59
2833.73
2830.13
2826.34
2822.3
2817.94
2813.37
2808.94
2805.1
2802.05
2799.81
2798.15
2796.75
2795.25
2793.36
2790.93
2787.9
2784.33
2780.5
2776.73
2773.21
2769.97
2766.98
2764.24
2761.71
2759.43
2757.39
2755.6
2754.05
2752.73
2751.61
2750.67
2749.89
2749.23
2748.68
2748.25
2747.96
2747.8
2747.79
2747.92
2748.19
2748.59
2749.12
2749.76
2750.5
2751.36
2752.32
2753.38
2754.53
2755.76
2757.07
2758.45
2759.89
2761.37
2762.88
2764.41
2765.92
2767.4
2768.82
2770.15
2771.37
2772.45
2773.34
2774.02
2774.46
2774.6
2774.4
2773.79
2772.71
2771.06
2768.83
2765.88
2762.14
2757.5
2751.86
2745.12
2737.17
2727.82
2716.94
2704.33
2689.89
2673.38
2654.7
2633.54
2609.78
2583.06
2553.48
2520.65
2484.99
2445.78
2403.65
2357.47
2308.21
2255.02
2198.45
2139.07
2075.9
2012.88
1945.83
1880
1812.88
1743.68
1678.96
1612.03
1551.94
1495.98
1445.42
1398.18
1353.45
1311.76
1275.21
1202.95
3272.25
2918.58
2901.25
2892.04
2879.5
2866.74
2855.86
2847.18
2840.78
2836.07
2832.46
2829.34
2826.04
2822.38
2818.51
2814.42
2810.22
2806.27
2802.93
2800.4
2798.62
2797.27
2795.96
2794.39
2792.36
2789.73
2786.45
2782.78
2779.08
2775.59
2772.39
2769.45
2766.76
2764.32
2762.14
2760.2
2758.54
2757.11
2755.93
2754.95
2754.16
2753.54
2753.05
2752.69
2752.45
2752.35
2752.39
2752.59
2752.92
2753.39
2754.01
2754.76
2755.63
2756.61
2757.71
2758.92
2760.25
2761.67
2763.2
2764.8
2766.5
2768.27
2770.1
2771.98
2773.9
2775.83
2777.76
2779.65
2781.49
2783.25
2784.9
2786.42
2787.78
2788.93
2789.83
2790.44
2790.72
2790.63
2790.06
2788.98
2787.24
2784.83
2781.62
2777.52
2772.44
2766.27
2758.86
2750.08
2739.74
2727.73
2713.82
2697.9
2679.72
2659.17
2635.96
2610.05
2580.99
2548.91
2513.11
2474.05
2430.99
2384.87
2334.77
2281.48
2224.5
2163.91
2100.6
2034.54
1964.9
1898.15
1826
1758.29
1690.38
1623.06
1559.69
1498.91
1443.23
1392.05
1348.2
1312.15
1241.13
3222.7
2914.84
2900.75
2891.58
2879.43
2866.59
2855.21
2846
2839.14
2834.16
2830.61
2827.86
2825.11
2822.02
2818.56
2814.89
2811.07
2807.24
2803.76
2801.01
2799.08
2797.74
2796.57
2795.29
2793.65
2791.44
2788.53
2785.09
2781.51
2778.08
2774.92
2772.03
2769.4
2767.03
2764.93
2763.1
2761.56
2760.27
2759.23
2758.39
2757.76
2757.3
2756.98
2756.8
2756.75
2756.84
2757.08
2757.46
2758
2758.69
2759.53
2760.5
2761.59
2762.81
2764.14
2765.61
2767.19
2768.89
2770.69
2772.6
2774.59
2776.69
2778.86
2781.1
2783.4
2785.73
2788.08
2790.43
2792.76
2795.04
2797.25
2799.37
2801.35
2803.19
2804.85
2806.27
2807.39
2808.18
2808.6
2808.64
2808.11
2807.02
2805.2
2802.62
2799.16
2794.76
2789.28
2782.58
2774.49
2764.88
2753.56
2740.41
2725.17
2707.66
2687.58
2664.85
2639.13
2610.5
2578.43
2543.18
2504.07
2461.59
2414.89
2364.78
2310.35
2252.14
2190.15
2126.2
2058.86
1989.46
1918.35
1844.99
1774.58
1702.69
1634.47
1568.78
1507.84
1450.84
1395.86
1348.38
1257.48
3170.95
2909.28
2900.02
2891.85
2879.94
2866.8
2854.86
2845.07
2837.62
2832.14
2828.34
2825.68
2823.35
2820.95
2818.13
2814.85
2811.29
2807.67
2804.24
2801.4
2799.34
2797.97
2796.94
2795.95
2794.74
2793.01
2790.51
2787.37
2783.96
2780.62
2777.52
2774.69
2772.12
2769.82
2767.79
2766.07
2764.64
2763.48
2762.59
2761.9
2761.43
2761.13
2760.99
2760.99
2761.13
2761.41
2761.84
2762.43
2763.18
2764.08
2765.13
2766.32
2767.65
2769.1
2770.67
2772.38
2774.22
2776.19
2778.27
2780.46
2782.76
2785.17
2787.67
2790.27
2792.93
2795.66
2798.43
2801.22
2804.02
2806.8
2809.55
2812.23
2814.84
2817.33
2819.69
2821.86
2823.82
2825.51
2826.86
2827.85
2828.43
2828.57
2828.07
2826.92
2824.98
2822.19
2818.46
2813.66
2807.64
2800.29
2791.4
2780.85
2768.4
2753.92
2737.14
2717.98
2696.04
2671.25
2643.06
2611.62
2576.33
2537.55
2494.64
2448.09
2396.94
2342.11
2283.19
2220.32
2154.99
2083.1
2013.09
1937.37
1863.37
1786.1
1712.84
1640.31
1572.1
1512.93
1459.78
1414.06
1319.7
3117.38
2902.42
2898.38
2892.14
2880.92
2867.27
2854.79
2844.46
2836.39
2830.3
2826.03
2823.11
2820.92
2819.04
2816.95
2814.32
2811.15
2807.69
2804.29
2801.43
2799.31
2797.95
2797.02
2796.22
2795.43
2794.25
2792.31
2789.57
2786.4
2783.19
2780.18
2777.44
2774.94
2772.7
2770.74
2769.11
2767.78
2766.76
2766.01
2765.48
2765.17
2765.05
2765.07
2765.27
2765.58
2766.04
2766.66
2767.45
2768.4
2769.52
2770.79
2772.2
2773.76
2775.44
2777.25
2779.2
2781.29
2783.51
2785.87
2788.34
2790.94
2793.65
2796.47
2799.4
2802.43
2805.53
2808.7
2811.91
2815.16
2818.42
2821.68
2824.91
2828.1
2831.22
2834.24
2837.14
2839.87
2842.39
2844.66
2846.65
2848.28
2849.49
2850.24
2850.47
2850.04
2848.87
2846.87
2843.94
2839.94
2834.76
2828.23
2820.22
2810.52
2798.97
2785.3
2769.33
2750.73
2729.45
2705.09
2677.71
2646.72
2612.28
2573.67
2531.13
2483.95
2432.92
2377.1
2316.81
2252.13
2184.81
2114.77
2040.52
1964.41
1885.21
1806.44
1730.53
1651.47
1578.83
1511.03
1453.92
1343.05
3065.1
2892.85
2895.37
2891.84
2882.17
2868.34
2855.21
2844.28
2835.68
2828.94
2823.98
2820.5
2818.13
2816.45
2814.91
2813
2810.45
2807.3
2803.98
2801.08
2798.96
2797.67
2796.85
2796.21
2795.67
2795.02
2793.75
2791.58
2788.76
2785.73
2782.84
2780.19
2777.79
2775.63
2773.74
2772.19
2770.95
2770.06
2769.44
2769.08
2768.95
2768.99
2769.21
2769.56
2770.06
2770.71
2771.52
2772.51
2773.67
2774.99
2776.48
2778.12
2779.9
2781.82
2783.87
2786.06
2788.39
2790.87
2793.49
2796.24
2799.12
2802.13
2805.27
2808.53
2811.89
2815.36
2818.92
2822.54
2826.22
2829.95
2833.7
2837.45
2841.19
2844.9
2848.57
2852.15
2855.62
2858.94
2862.06
2864.95
2867.57
2869.88
2871.78
2873.2
2874.08
2874.4
2874.02
2872.82
2870.71
2867.53
2863.19
2857.56
2850.46
2841.71
2831.07
2818.4
2803.38
2785.93
2765.61
2742.33
2715.51
2685.18
2650.72
2612.43
2569.82
2522.91
2470.51
2413.81
2352.86
2287.99
2218.58
2145.05
2066.23
1989.24
1905.4
1828.15
1745.14
1672.25
1601.51
1537.27
1410.14
3017.95
2880.43
2890.12
2889.76
2882.73
2869.75
2856.11
2844.54
2835.42
2828.19
2822.54
2818.36
2815.49
2813.57
2812.14
2810.71
2808.79
2806.17
2803.14
2800.33
2798.22
2796.96
2796.3
2795.88
2795.58
2795.26
2794.63
2793.22
2790.91
2788.17
2785.45
2782.94
2780.66
2778.6
2776.79
2775.32
2774.16
2773.39
2772.89
2772.7
2772.74
2772.98
2773.35
2773.9
2774.58
2775.42
2776.41
2777.59
2778.94
2780.47
2782.17
2784.03
2786.04
2788.19
2790.48
2792.9
2795.48
2798.2
2801.08
2804.09
2807.25
2810.55
2813.98
2817.56
2821.25
2825.07
2828.99
2833
2837.1
2841.26
2845.47
2849.72
2853.99
2858.26
2862.53
2866.75
2870.92
2874.98
2878.91
2882.67
2886.22
2889.53
2892.54
2895.18
2897.38
2899.04
2900.13
2900.59
2900.34
2899.13
2896.94
2893.56
2888.91
2882.8
2875.05
2865.45
2853.72
2839.72
2823.08
2803.73
2781.13
2755.28
2725.58
2692.18
2654.35
2611.87
2564.13
2512.16
2455.11
2393.22
2325.5
2252.75
2176.78
2098.8
2013.66
1923.25
1837.26
1749.43
1672.04
1608.29
1485.55
2976.57
2865.28
2882.02
2885.4
2882.01
2871.12
2857.77
2845.54
2835.78
2828.07
2821.94
2817.24
2813.66
2811.1
2809.36
2808.01
2806.44
2804.27
2801.58
2798.93
2796.91
2795.71
2795.19
2795
2795.08
2795.13
2794.94
2794.25
2792.7
2790.43
2787.96
2785.61
2783.47
2781.54
2779.84
2778.44
2777.37
2776.69
2776.32
2776.26
2776.53
2776.92
2777.49
2778.22
2779.09
2780.11
2781.29
2782.65
2784.2
2785.93
2787.84
2789.92
2792.15
2794.53
2797.05
2799.71
2802.52
2805.49
2808.62
2811.89
2815.32
2818.89
2822.62
2826.5
2830.51
2834.66
2838.94
2843.32
2847.81
2852.39
2857.05
2861.77
2866.54
2871.34
2876.18
2881.01
2885.83
2890.59
2895.28
2899.85
2904.27
2908.51
2912.53
2916.27
2919.66
2922.64
2925.14
2927.05
2928.33
2928.92
2928.76
2927.51
2925.23
2921.6
2916.6
2909.96
2901.48
2890.99
2878.14
2862.81
2844.47
2823.07
2798.04
2769.35
2736.26
2698.79
2656.64
2609.87
2556.97
2498.77
2435.22
2367.42
2294.28
2214.74
2135.34
2046.52
1959.56
1867.18
1774.67
1692.28
1537.67
2941.82
2847.23
2869.02
2878.81
2879.26
2872.08
2859.97
2847.65
2837.05
2828.67
2822.17
2817.15
2813.17
2810.17
2807.98
2806.18
2804.33
2802.12
2799.56
2797.05
2795.1
2794.06
2793.71
2793.71
2794.12
2794.63
2794.81
2794.63
2793.89
2792.32
2790.26
2788.15
2786.2
2784.43
2782.86
2781.56
2780.59
2779.99
2779.74
2779.8
2780.26
2780.84
2781.6
2782.52
2783.58
2784.79
2786.15
2787.69
2789.43
2791.35
2793.46
2795.75
2798.2
2800.81
2803.56
2806.45
2809.49
2812.69
2816.06
2819.59
2823.27
2827.11
2831.12
2835.28
2839.6
2844.06
2848.67
2853.41
2858.27
2863.24
2868.32
2873.48
2878.72
2884.02
2889.38
2894.79
2900.21
2905.63
2911.02
2916.35
2921.59
2926.7
2931.67
2936.44
2940.96
2945.15
2948.97
2952.35
2955.22
2957.44
2958.97
2959.74
2959.75
2958.46
2956.07
2952.17
2946.7
2939.42
2930.06
2918.46
2904.2
2887.19
2866.84
2843
2815.03
2782.99
2746.23
2704.26
2656.21
2603.02
2543.96
2479.55
2408.79
2332
2249.07
2163.33
2069.31
1980.83
1887.65
1809.48
1657.05
2915.74
2828.15
2850.26
2867.68
2873.58
2870.91
2861.22
2850.07
2839.64
2830.82
2823.67
2817.98
2813.57
2810.35
2807.97
2805.92
2803.73
2801.23
2798.47
2795.76
2793.53
2792.3
2791.91
2792
2792.55
2793.49
2794.27
2794.58
2794.47
2793.72
2792.25
2790.49
2788.77
2787.19
2785.79
2784.61
2783.75
2783.23
2783.08
2783.3
2783.91
2784.67
2785.64
2786.75
2788.01
2789.41
2790.95
2792.67
2794.59
2796.7
2799.01
2801.5
2804.16
2806.99
2809.96
2813.08
2816.35
2819.79
2823.39
2827.16
2831.09
2835.19
2839.46
2843.9
2848.51
2853.27
2858.2
2863.27
2868.49
2873.83
2879.3
2884.88
2890.56
2896.34
2902.2
2908.13
2914.13
2920.16
2926.21
2932.24
2938.23
2944.15
2949.99
2955.71
2961.25
2966.55
2971.57
2976.25
2980.51
2984.31
2987.56
2990.09
2991.88
2992.85
2992.96
2991.69
2989.15
2984.95
2978.98
2971.04
2960.76
2948.01
2932.17
2913.12
2890.27
2863.56
2832.17
2795.75
2753.9
2706.95
2653.71
2594.37
2527.88
2455.28
2375.57
2289.25
2198.12
2102.08
1995.2
1901.86
1732.08
2899.99
2812.07
2828.51
2850.34
2863.61
2865.82
2861.13
2851.63
2842.22
2833.59
2826.33
2820.27
2815.46
2811.76
2808.88
2806.41
2804
2801.34
2798.41
2795.5
2793
2791.31
2790.58
2790.55
2790.96
2792.07
2793.35
2794.28
2794.65
2794.53
2793.77
2792.53
2791.13
2789.79
2788.59
2787.56
2786.84
2786.41
2786.36
2786.73
2787.48
2788.43
2789.58
2790.9
2792.36
2793.95
2795.68
2797.58
2799.68
2801.98
2804.47
2807.16
2810.02
2813.06
2816.25
2819.59
2823.08
2826.74
2830.57
2834.57
2838.74
2843.09
2847.61
2852.31
2857.19
2862.24
2867.46
2872.85
2878.39
2884.08
2889.92
2895.89
2901.98
2908.19
2914.51
2920.94
2927.46
2934.05
2940.7
2947.39
2954.07
2960.75
2967.39
2973.97
2980.46
2986.8
2992.93
2998.82
3004.41
3009.64
3014.42
3018.7
3022.38
3025.3
3027.41
3028.59
3028.79
3027.47
3024.7
3020.12
3013.54
3004.76
2993.29
2979.02
2961.31
2939.98
2914.24
2883.95
2848.64
2807.92
2760.57
2706.79
2645.85
2578.74
2503.96
2422.34
2332.69
2241.96
2137.02
2039.49
1862.23
2893.04
2801.79
2810.21
2828.87
2847.93
2856.61
2856.92
2851.65
2843.42
2835.81
2829.25
2823.47
2818.55
2814.45
2811.16
2808.28
2805.42
2802.38
2799.12
2795.88
2793.09
2791.1
2790
2789.7
2789.83
2790.73
2792.18
2793.62
2794.56
2794.92
2794.82
2794.18
2793.22
2792.18
2791.21
2790.38
2789.8
2789.51
2789.54
2790.08
2790.94
2792.07
2793.42
2794.94
2796.6
2798.39
2800.31
2802.39
2804.67
2807.14
2809.82
2812.69
2815.76
2818.99
2822.39
2825.94
2829.65
2833.52
2837.57
2841.8
2846.2
2850.78
2855.55
2860.49
2865.63
2870.95
2876.45
2882.14
2887.99
2894.01
2900.19
2906.52
2913
2919.62
2926.37
2933.25
2940.26
2947.37
2954.58
2961.86
2969.19
2976.55
2983.93
2991.31
2998.65
3005.92
3013.07
3020.05
3026.83
3033.34
3039.52
3045.32
3050.65
3055.44
3059.6
3062.93
3065.36
3066.74
3067.03
3065.67
3062.67
3057.68
3050.39
3040.64
3027.78
3011.62
2991.46
2967.16
2937.94
2903.12
2861.89
2814.48
2760.15
2698.99
2629.02
2551.1
2464.47
2371.29
2272.05
2172.68
2000.68
2891.08
2798.06
2801.45
2810.28
2827.04
2841.35
2848.09
2847.72
2842.61
2836.44
2830.64
2826.08
2822.08
2818.4
2814.87
2811.37
2807.88
2804.32
2800.68
2797.15
2794
2791.57
2790.08
2789.49
2789.47
2790.03
2791.3
2792.98
2794.42
2795.27
2795.6
2795.53
2795.05
2794.37
2793.66
2793.05
2792.63
2792.48
2792.65
2793.31
2794.31
2795.61
2797.14
2798.86
2800.73
2802.71
2804.82
2807.09
2809.54
2812.19
2815.05
2818.1
2821.35
2824.78
2828.38
2832.14
2836.05
2840.13
2844.39
2848.83
2853.45
2858.26
2863.25
2868.43
2873.81
2879.38
2885.15
2891.1
2897.24
2903.56
2910.06
2916.73
2923.56
2930.55
2937.7
2945
2952.45
2960.03
2967.75
2975.58
2983.49
2991.48
2999.52
3007.62
3015.74
3023.85
3031.92
3039.9
3047.76
3055.45
3062.92
3070.12
3076.98
3083.43
3089.39
3094.76
3099.43
3103.17
3105.92
3107.49
3107.85
3106.4
3103.08
3097.52
3089.3
3078.22
3063.62
3045.24
3022.17
2993.96
2960.05
2920.14
2872.94
2818.27
2755.02
2683.7
2601.49
2511.28
2409.16
2304.01
2133.09
2892.15
2799.01
2798.6
2798.83
2806.9
2820.79
2833.21
2839
2838.78
2835.45
2830.73
2826.81
2823.86
2821.59
2818.85
2815.47
2811.72
2807.63
2803.48
2799.47
2795.83
2792.85
2790.78
2789.8
2789.61
2789.87
2790.97
2792.64
2794.35
2795.64
2796.38
2796.69
2796.67
2796.36
2795.94
2795.56
2795.33
2795.31
2795.66
2796.43
2797.57
2799.04
2800.75
2802.66
2804.72
2806.9
2809.2
2811.65
2814.28
2817.1
2820.14
2823.37
2826.8
2830.42
2834.21
2838.16
2842.27
2846.54
2851
2855.65
2860.48
2865.49
2870.7
2876.11
2881.71
2887.52
2893.53
2899.74
2906.15
2912.75
2919.54
2926.51
2933.68
2941.01
2948.52
2956.21
2964.07
2972.09
2980.27
2988.59
2997.04
3005.59
3014.25
3022.99
3031.81
3040.68
3049.58
3058.45
3067.28
3076.02
3084.63
3093.07
3101.29
3109.22
3116.8
3123.96
3130.58
3136.56
3141.76
3145.94
3149.03
3150.82
3151.27
3149.68
3145.92
3139.62
3130.24
3117.48
3100.52
3079.08
3052.4
3019.75
2979.93
2932.73
2877.21
2812.91
2738.06
2654.61
2557.44
2456.21
2296.02
2893.37
2801.41
2797.85
2793.47
2793.6
2800.59
2813.47
2824.96
2830.71
2831.43
2829.34
2826.48
2824.12
2822.32
2820.66
2818.73
2815.7
2811.76
2807.4
2803.01
2798.93
2795.37
2792.59
2790.87
2790.24
2790.28
2791.04
2792.61
2794.5
2796.1
2797.18
2797.84
2798.15
2798.2
2798.08
2797.92
2797.87
2798.04
2798.55
2799.45
2800.74
2802.36
2804.24
2806.33
2808.59
2810.96
2813.46
2816.08
2818.88
2821.88
2825.09
2828.5
2832.1
2835.9
2839.86
2844
2848.29
2852.76
2857.4
2862.24
2867.27
2872.49
2877.9
2883.51
2889.33
2895.36
2901.6
2908.04
2914.69
2921.55
2928.61
2935.87
2943.33
2950.98
2958.83
2966.86
2975.08
2983.5
2992.09
3000.86
3009.78
3018.85
3028.05
3037.38
3046.82
3056.37
3065.99
3075.66
3085.35
3095.03
3104.67
3114.22
3123.64
3132.9
3141.94
3150.7
3159.08
3167
3174.32
3180.93
3186.71
3191.36
3194.82
3196.82
3197.29
3195.43
3191.04
3183.68
3172.76
3157.85
3138.02
3112.5
3080.34
3041.23
2993.95
2937.57
2870.69
2792.08
2700.78
2598.19
2450.88
2893.98
2804.39
2798.83
2790.84
2786.25
2786.38
2793.74
2806.62
2817.99
2823.93
2825.51
2824.72
2823.16
2821.9
2820.71
2819.36
2817.43
2814.94
2811.33
2807.23
2802.99
2799.01
2795.57
2793.05
2791.7
2791.37
2791.68
2792.99
2794.89
2796.7
2798.05
2798.99
2799.61
2799.94
2800.09
2800.16
2800.3
2800.65
2801.33
2802.37
2803.81
2805.58
2807.62
2809.89
2812.33
2814.9
2817.57
2820.38
2823.35
2826.52
2829.89
2833.47
2837.24
2841.21
2845.35
2849.66
2854.13
2858.77
2863.59
2868.61
2873.82
2879.23
2884.83
2890.64
2896.66
2902.89
2909.34
2916
2922.88
2929.97
2937.28
2944.8
2952.53
2960.47
2968.61
2976.96
2985.52
2994.29
3003.26
3012.42
3021.78
3031.3
3040.99
3050.84
3060.84
3070.99
3081.26
3091.64
3102.09
3112.6
3123.13
3133.66
3144.15
3154.57
3164.88
3175.03
3184.95
3194.58
3203.79
3212.51
3220.59
3227.91
3234.33
3239.49
3243.32
3245.5
3245.94
3243.65
3238.44
3229.57
3216.42
3198.25
3174.19
3143.36
3104.18
3055.99
2997.07
2925.43
2841.94
2741.26
2606.18
2894.11
2807.11
2800.74
2790.38
2782.18
2777.67
2778.99
2787.99
2801.59
2812.82
2818.95
2820.82
2820.8
2820.37
2819.74
2818.82
2817.44
2815.74
2813.64
2810.73
2807.13
2803.25
2799.44
2796.25
2794.08
2793.2
2793.15
2793.94
2795.65
2797.56
2799.08
2800.23
2801.09
2801.67
2802.04
2802.32
2802.65
2803.17
2804
2805.2
2806.79
2808.71
2810.91
2813.34
2815.96
2818.71
2821.57
2824.55
2827.69
2831.02
2834.55
2838.3
2842.23
2846.36
2850.67
2855.14
2859.77
2864.58
2869.57
2874.76
2880.15
2885.73
2891.51
2897.5
2903.7
2910.12
2916.77
2923.63
2930.72
2938.03
2945.56
2953.31
2961.29
2969.49
2977.9
2986.54
2995.39
3004.48
3013.78
3023.3
3033.04
3042.97
3053.09
3063.4
3073.89
3084.56
3095.41
3106.4
3117.51
3128.74
3140.06
3151.44
3162.86
3174.29
3185.71
3197.07
3208.34
3219.45
3230.31
3240.86
3250.98
3260.58
3269.51
3277.6
3284.72
3290.4
3294.59
3296.89
3297.2
3294.11
3287.75
3276.82
3260.97
3238.84
3209.21
3171.25
3122.16
3059.98
2984.51
2890.02
2763.96
2894.29
2809.3
2802.79
2790.61
2780.13
2772.11
2769.27
2772.97
2784.59
2798.89
2809.48
2814.81
2816.8
2817.33
2817.4
2817.17
2816.51
2815.49
2814.1
2812.54
2810.23
2807.17
2803.59
2800.08
2797.24
2795.7
2795.28
2795.57
2796.92
2798.74
2800.32
2801.59
2802.62
2803.41
2803.97
2804.42
2804.91
2805.6
2806.59
2807.95
2809.69
2811.76
2814.12
2816.71
2819.49
2822.41
2825.44
2828.58
2831.89
2835.38
2839.07
2842.97
2847.07
2851.35
2855.81
2860.43
2865.22
2870.19
2875.33
2880.68
2886.23
2891.97
2897.92
2904.08
2910.45
2917.05
2923.87
2930.91
2938.19
2945.7
2953.43
2961.4
2969.6
2978.03
2986.69
2995.58
3004.7
3014.07
3023.67
3033.51
3043.58
3053.86
3064.37
3075.08
3086
3097.14
3108.48
3120
3131.7
3143.56
3155.55
3167.67
3179.89
3192.2
3204.57
3216.98
3229.39
3241.77
3254.05
3266.17
3278.04
3289.6
3300.71
3311.29
3321.16
3330.1
3337.98
3344.2
3348.79
3351.15
3351.33
3347.04
3339.01
3325.02
3304.67
3276.25
3236.58
3183.85
3115.76
3028.6
2911.69
2894.79
2810.88
2803.91
2790.65
2778.58
2768.36
2762.91
2762.79
2769.71
2783.9
2798.01
2806.95
2811.18
2812.95
2813.89
2814.38
2814.62
2814.48
2813.85
2812.98
2811.77
2809.92
2807.24
2803.97
2800.82
2798.7
2797.88
2797.83
2798.69
2800.27
2801.82
2803.12
2804.27
2805.19
2805.9
2806.5
2807.13
2807.96
2809.11
2810.64
2812.54
2814.76
2817.26
2820.01
2822.95
2826.02
2829.21
2832.51
2835.97
2839.62
2843.47
2847.52
2851.76
2856.2
2860.8
2865.57
2870.51
2875.62
2880.91
2886.4
2892.1
2898
2904.1
2910.41
2916.94
2923.7
2930.68
2937.9
2945.35
2953.03
2960.95
2969.11
2977.51
2986.15
2995.03
3004.15
3013.51
3023.13
3032.99
3043.11
3053.47
3064.08
3074.92
3085.98
3097.28
3108.82
3120.59
3132.57
3144.77
3157.17
3169.74
3182.49
3195.4
3208.45
3221.63
3234.93
3248.32
3261.78
3275.25
3288.7
3302.06
3315.27
3328.25
3340.93
3353.16
3364.83
3375.73
3385.63
3394.34
3401.11
3406.06
3408.27
3407.54
3401.28
3390.37
3372.19
3344.45
3304.5
3246.19
3168.28
3058.83
2895.89
2811.87
2803.84
2790.1
2777.05
2765.61
2758.22
2755.69
2758.73
2770.15
2785.73
2797.78
2804.4
2807.57
2809.37
2810.71
2811.81
2812.68
2812.95
2812.75
2812.19
2811.29
2809.77
2807.32
2804.34
2801.92
2800.72
2800.43
2800.89
2802.15
2803.58
2804.83
2806.03
2807.05
2807.86
2808.57
2809.33
2810.29
2811.59
2813.28
2815.33
2817.7
2820.35
2823.24
2826.32
2829.54
2832.87
2836.32
2839.93
2843.72
2847.72
2851.91
2856.31
2860.88
2865.62
2870.53
2875.6
2880.84
2886.27
2891.9
2897.73
2903.77
2910.02
2916.48
2923.15
2930.06
2937.19
2944.56
2952.17
2960.01
2968.1
2976.43
2985.01
2993.84
3002.91
3012.23
3021.81
3031.65
3041.75
3052.11
3062.74
3073.62
3084.75
3096.13
3107.75
3119.64
3131.78
3144.16
3156.79
3169.64
3182.72
3196.01
3209.5
3223.18
3237.05
3251.1
3265.31
3279.67
3294.15
3308.71
3323.31
3337.9
3352.44
3366.87
3381.09
3395.03
3408.49
3421.39
3433.46
3444.45
3454.06
3461.5
3466.87
3469.01
3467.48
3459.42
3443.77
3416.56
3369.18
3304.46
3202.4
2897.21
2811.6
2803.13
2788.61
2775.14
2763.31
2754.73
2750.73
2751.26
2758.71
2773.71
2788.14
2797.1
2801.67
2804.29
2806.4
2808.36
2810.15
2811.39
2811.99
2812.05
2811.68
2811.07
2809.7
2807.39
2805.05
2803.64
2803.17
2803.35
2804.29
2805.54
2806.7
2807.9
2808.97
2809.86
2810.66
2811.52
2812.61
2814.06
2815.9
2818.1
2820.62
2823.4
2826.42
2829.64
2832.99
2836.46
2840.05
2843.79
2847.73
2851.86
2856.2
2860.73
2865.43
2870.3
2875.34
2880.53
2885.9
2891.45
2897.21
2903.17
2909.34
2915.72
2922.31
2929.12
2936.16
2943.43
2950.94
2958.69
2966.69
2974.93
2983.42
2992.16
3001.15
3010.4
3019.91
3029.68
3039.72
3050.03
3060.61
3071.47
3082.59
3093.98
3105.63
3117.55
3129.73
3142.2
3154.93
3167.93
3181.18
3194.68
3208.43
3222.42
3236.64
3251.09
3265.78
3280.68
3295.8
3311.11
3326.6
3342.22
3357.96
3373.79
3389.65
3405.51
3421.3
3436.9
3452.26
3467.16
3481.52
3494.98
3507.31
3517.9
3525.94
3531.26
3532.66
3528.55
3514.88
3482.55
3436.87
3346.94
2898.89
2810.76
2801.61
2786.19
2772.73
2761.1
2752.07
2747.01
2745.89
2750.01
2762.94
2778.62
2789.7
2795.67
2799.04
2801.76
2804.47
2807.15
2809.25
2810.72
2811.52
2811.64
2811.55
2811.05
2809.67
2807.79
2806.41
2805.85
2805.89
2806.56
2807.63
2808.7
2809.87
2810.96
2811.89
2812.75
2813.7
2814.9
2816.49
2818.48
2820.83
2823.49
2826.4
2829.55
2832.89
2836.36
2839.95
2843.67
2847.54
2851.61
2855.88
2860.35
2865.01
2869.84
2874.83
2879.98
2885.29
2890.78
2896.45
2902.32
2908.41
2914.7
2921.2
2927.91
2934.84
2942.01
2949.41
2957.05
2964.93
2973.07
2981.45
2990.08
2998.97
3008.12
3017.53
3027.21
3037.16
3047.38
3057.87
3068.66
3079.72
3091.06
3102.68
3114.57
3126.75
3139.21
3151.95
3164.99
3178.31
3191.91
3205.79
3219.93
3234.35
3249.03
3263.98
3279.21
3294.69
3310.45
3326.46
3342.71
3359.19
3375.88
3392.75
3409.79
3426.98
3444.27
3461.6
3478.92
3496.11
3513.09
3529.61
3545.6
3560.6
3574.41
3586.07
3595.06
3600.77
3601.03
3585.75
3560.7
3495.79
2900.85
2808.89
2798.87
2782.89
2769.85
2758.82
2749.88
2744.07
2741.82
2743.65
2753.64
2769.47
2782.42
2789.86
2794
2797.2
2800.48
2803.88
2806.78
2809.05
2810.57
2811.33
2811.63
2811.68
2811.16
2809.98
2808.87
2808.37
2808.34
2808.87
2809.77
2810.76
2811.9
2812.99
2813.95
2814.86
2815.88
2817.19
2818.91
2821.05
2823.54
2826.33
2829.37
2832.63
2836.08
2839.67
2843.37
2847.2
2851.2
2855.4
2859.8
2864.39
2869.17
2874.11
2879.22
2884.47
2889.89
2895.48
2901.26
2907.25
2913.45
2919.85
2926.46
2933.29
2940.34
2947.62
2955.14
2962.9
2970.91
2979.17
2987.68
2996.45
3005.48
3014.78
3024.34
3034.16
3044.27
3054.66
3065.33
3076.29
3087.54
3099.09
3110.91
3123.03
3135.43
3148.13
3161.14
3174.44
3188.05
3201.96
3216.16
3230.66
3245.45
3260.53
3275.91
3291.6
3307.58
3323.88
3340.48
3357.38
3374.57
3392.04
3409.78
3427.78
3446.05
3464.54
3483.25
3502.12
3521.13
3540.19
3559.21
3578.1
3596.61
3614.64
3631.51
3647.09
3659.84
3669.35
3672.44
3662.89
3634.48
2902.75
2806.25
2794.96
2779.01
2766.7
2756.49
2747.94
2741.6
2738.47
2738.84
2745.75
2760.86
2775.39
2784.4
2789.42
2793.04
2796.69
2800.59
2804.17
2807.12
2809.32
2810.74
2811.49
2811.92
2811.99
2811.55
2810.9
2810.59
2810.64
2811.1
2811.89
2812.84
2813.96
2815.04
2816.01
2816.95
2818.04
2819.46
2821.31
2823.59
2826.22
2829.13
2832.28
2835.66
2839.21
2842.9
2846.7
2850.64
2854.76
2859.08
2863.6
2868.31
2873.2
2878.25
2883.45
2888.81
2894.33
2900.02
2905.91
2912
2918.3
2924.81
2931.52
2938.46
2945.62
2953.01
2960.64
2968.52
2976.64
2985.02
2993.66
3002.55
3011.71
3021.14
3030.84
3040.82
3051.07
3061.62
3072.45
3083.59
3095.02
3106.75
3118.77
3131.09
3143.71
3156.63
3169.87
3183.43
3197.31
3211.49
3225.99
3240.8
3255.93
3271.37
3287.13
3303.22
3319.65
3336.42
3353.52
3370.97
3388.75
3406.87
3425.32
3444.11
3463.24
3482.7
3502.48
3522.56
3542.95
3563.57
3584.43
3605.39
3626.41
3647.33
3667.92
3688.07
3706.94
3724.05
3737.65
3742.53
3744.59
2904.13
2802.98
2790.51
2774.97
2763.5
2754.1
2746.05
2739.39
2735.5
2734.84
2739.2
2752.92
2768.68
2779.34
2785.36
2789.45
2793.32
2797.49
2801.55
2805.09
2807.9
2809.9
2811.14
2811.9
2812.41
2812.59
2812.5
2812.48
2812.68
2813.18
2813.93
2814.9
2816
2817.08
2818.05
2819.02
2820.18
2821.71
2823.69
2826.11
2828.87
2831.89
2835.15
2838.62
2842.27
2846.04
2849.94
2853.98
2858.21
2862.64
2867.28
2872.1
2877.09
2882.24
2887.54
2892.99
2898.6
2904.38
2910.37
2916.56
2922.95
2929.56
2936.37
2943.41
2950.67
2958.16
2965.9
2973.88
2982.12
2990.61
2999.36
3008.37
3017.66
3027.21
3037.04
3047.15
3057.55
3068.24
3079.23
3090.52
3102.12
3114.02
3126.23
3138.73
3151.55
3164.69
3178.14
3191.93
3206.04
3220.48
3235.25
3250.34
3265.77
3281.53
3297.63
3314.08
3330.89
3348.06
3365.6
3383.52
3401.8
3420.45
3439.48
3458.9
3478.7
3498.91
3519.49
3540.48
3561.84
3583.57
3605.66
3628.02
3650.7
3673.48
3696.3
3718.96
3740.86
3762.03
3780.17
3793.24
3807.69
2904.71
2799.08
2785.89
2770.96
2760.29
2751.63
2744.05
2737.26
2732.72
2731.22
2733.75
2745.74
2762.39
2774.71
2781.82
2786.43
2790.49
2794.76
2799.09
2803.05
2806.4
2808.91
2810.61
2811.71
2812.56
2813.22
2813.66
2814.01
2814.45
2815.06
2815.88
2816.89
2818.01
2819.08
2820.05
2821.05
2822.28
2823.92
2826.04
2828.59
2831.46
2834.59
2837.95
2841.52
2845.25
2849.1
2853.08
2857.22
2861.55
2866.1
2870.84
2875.76
2880.85
2886.08
2891.46
2896.99
2902.69
2908.57
2914.64
2920.92
2927.41
2934.11
2941.01
2948.14
2955.49
2963.08
2970.92