/*--------------------------------*- C++ -*----------------------------------*\
| =========                 |                                                 |
| \\      /  F ield         | OpenFOAM: The Open Source CFD Toolbox           |
|  \\    /   O peration     | Version:  2412                                  |
|   \\  /    A nd           | Website:  www.openfoam.com                      |
|    \\/     M anipulation  |                                                 |
\*---------------------------------------------------------------------------*/
FoamFile
{
    version     2.0;
    format      ascii;
    arch        "LSB;label=32;scalar=64";
    class       volScalarField;
    location    "0.069";
    object      T;
}
// * * * * * * * * * * * * * * * * * * * * * * * * * * * * * * * * * * * * * //

dimensions      [0 0 0 1 0 0 0];

internalField   nonuniform List<scalar> 
78650
(
224.538
223.806
224.056
224.242
224.416
224.565
224.696
224.833
224.937
224.986
224.992
224.976
224.939
224.887
224.817
224.719
224.579
224.414
224.239
224.067
223.904
223.75
223.604
223.464
223.331
223.207
223.092
222.985
222.884
222.788
222.698
222.614
222.536
222.464
222.396
222.331
222.267
222.203
222.141
222.079
222.019
221.96
221.903
221.849
221.798
221.75
221.705
221.662
221.622
221.584
221.549
221.516
221.486
221.458
221.431
221.406
221.383
221.36
221.339
221.317
221.295
221.272
221.247
221.221
221.19
221.156
221.117
221.072
221.02
220.96
220.89
220.809
220.715
220.607
220.482
220.339
220.174
219.985
219.77
219.525
219.249
218.937
218.586
218.19
217.746
217.247
216.69
216.071
215.385
214.625
213.796
212.88
211.883
210.779
209.595
208.295
206.897
205.402
203.785
202.062
200.255
198.393
196.446
194.448
192.385
190.349
188.307
186.224
184.225
182.294
180.424
178.681
176.956
175.233
173.617
172.27
171.301
170.624
170.213
170.096
168.829
224.259
223.527
223.672
223.816
224.038
224.271
224.484
224.673
224.824
224.913
224.947
224.946
224.924
224.88
224.816
224.723
224.589
224.428
224.253
224.081
223.919
223.766
223.622
223.485
223.354
223.231
223.117
223.012
222.913
222.82
222.733
222.651
222.576
222.507
222.443
222.381
222.322
222.263
222.206
222.149
222.093
222.039
221.988
221.939
221.892
221.849
221.809
221.772
221.737
221.705
221.676
221.649
221.624
221.602
221.582
221.564
221.548
221.532
221.518
221.505
221.491
221.477
221.463
221.446
221.428
221.405
221.379
221.348
221.311
221.267
221.215
221.153
221.08
220.994
220.894
220.778
220.642
220.485
220.305
220.098
219.862
219.595
219.292
218.949
218.562
218.126
217.637
217.09
216.482
215.803
215.054
214.218
213.301
212.284
211.191
209.993
208.706
207.306
205.778
204.158
202.408
200.607
198.719
196.793
194.779
192.755
190.793
188.756
186.727
184.795
182.837
180.978
179.185
177.454
175.793
174.184
172.78
171.633
170.907
170.519
168.799
224.13
223.416
223.422
223.421
223.587
223.878
224.194
224.475
224.693
224.833
224.905
224.923
224.911
224.878
224.819
224.729
224.599
224.443
224.27
224.098
223.935
223.782
223.639
223.504
223.375
223.255
223.143
223.039
222.942
222.852
222.767
222.689
222.617
222.551
222.49
222.432
222.377
222.324
222.271
222.219
222.169
222.12
222.073
222.028
221.987
221.949
221.914
221.882
221.853
221.827
221.803
221.782
221.764
221.748
221.734
221.723
221.714
221.706
221.699
221.694
221.689
221.684
221.679
221.673
221.666
221.655
221.642
221.624
221.602
221.574
221.539
221.495
221.442
221.378
221.301
221.21
221.102
220.975
220.827
220.655
220.457
220.23
219.971
219.677
219.343
218.963
218.535
218.052
217.512
216.907
216.235
215.484
214.662
213.754
212.773
211.682
210.495
209.196
207.802
206.294
204.667
202.919
201.034
199.081
197.077
194.962
192.856
190.762
188.621
186.611
184.608
182.607
180.694
178.878
177.226
175.736
174.455
173.335
172.488
171.932
169.994
224.048
223.407
223.329
223.182
223.211
223.432
223.797
224.184
224.507
224.729
224.853
224.9
224.902
224.881
224.828
224.739
224.614
224.46
224.288
224.116
223.952
223.799
223.656
223.522
223.396
223.278
223.169
223.067
222.972
222.884
222.803
222.728
222.659
222.596
222.538
222.484
222.433
222.385
222.337
222.29
222.245
222.201
222.159
222.12
222.083
222.05
222.021
221.994
221.971
221.95
221.932
221.917
221.904
221.894
221.887
221.883
221.88
221.879
221.88
221.883
221.886
221.89
221.895
221.899
221.901
221.902
221.901
221.896
221.888
221.875
221.856
221.83
221.796
221.752
221.698
221.63
221.549
221.451
221.334
221.196
221.035
220.848
220.633
220.386
220.103
219.78
219.412
218.994
218.525
217.996
217.406
216.742
216.008
215.19
214.293
213.291
212.202
211.009
209.722
208.332
206.824
205.188
203.435
201.563
199.665
197.642
195.517
193.408
191.191
188.963
186.811
184.604
182.487
180.443
178.453
176.65
175.153
173.949
173.137
172.69
170.887
223.983
223.418
223.337
223.127
222.992
223.063
223.341
223.772
224.214
224.557
224.762
224.863
224.892
224.88
224.837
224.752
224.631
224.48
224.31
224.138
223.973
223.817
223.673
223.54
223.417
223.302
223.195
223.095
223.003
222.917
222.839
222.767
222.701
222.641
222.587
222.537
222.491
222.447
222.404
222.363
222.323
222.284
222.247
222.213
222.182
222.154
222.129
222.108
222.09
222.075
222.063
222.053
222.047
222.043
222.043
222.045
222.049
222.055
222.064
222.074
222.086
222.098
222.112
222.125
222.139
222.151
222.161
222.169
222.174
222.175
222.172
222.163
222.147
222.123
222.089
222.045
221.988
221.917
221.829
221.723
221.596
221.446
221.271
221.067
220.831
220.559
220.247
219.89
219.486
219.028
218.511
217.927
217.278
216.552
215.749
214.849
213.863
212.772
211.586
210.291
208.887
207.372
205.725
203.946
202.05
200.122
198.074
196.018
193.938
191.755
189.61
187.414
185.21
183.123
180.98
178.947
177.115
175.527
174.334
173.529
171.092
223.904
223.434
223.372
223.155
222.938
222.845
222.951
223.28
223.764
224.246
224.599
224.788
224.863
224.87
224.841
224.768
224.653
224.503
224.334
224.162
223.995
223.836
223.691
223.558
223.437
223.325
223.221
223.124
223.034
222.951
222.876
222.807
222.745
222.689
222.638
222.593
222.55
222.511
222.473
222.437
222.402
222.369
222.337
222.308
222.282
222.259
222.24
222.224
222.211
222.202
222.196
222.192
222.192
222.194
222.2
222.208
222.219
222.233
222.248
222.266
222.286
222.307
222.329
222.352
222.375
222.398
222.42
222.44
222.458
222.473
222.484
222.491
222.492
222.487
222.474
222.451
222.418
222.373
222.313
222.237
222.143
222.029
221.893
221.731
221.542
221.32
221.063
220.765
220.424
220.033
219.589
219.086
218.522
217.882
217.168
216.367
215.488
214.513
213.442
212.259
210.958
209.543
208.002
206.342
204.529
202.602
200.528
198.359
196.225
193.971
191.73
189.56
187.315
185.169
183.015
180.964
179.161
177.618
176.439
175.577
173.017
223.811
223.446
223.419
223.233
222.963
222.782
222.727
222.866
223.229
223.753
224.263
224.612
224.775
224.831
224.827
224.774
224.671
224.525
224.361
224.19
224.019
223.857
223.709
223.576
223.456
223.346
223.246
223.153
223.066
222.986
222.913
222.847
222.788
222.737
222.691
222.649
222.611
222.576
222.543
222.512
222.483
222.455
222.429
222.405
222.384
222.367
222.353
222.342
222.335
222.332
222.331
222.334
222.339
222.348
222.359
222.374
222.392
222.413
222.436
222.461
222.488
222.518
222.549
222.581
222.614
222.647
222.679
222.711
222.741
222.77
222.796
222.818
222.835
222.847
222.853
222.852
222.841
222.82
222.786
222.739
222.676
222.595
222.494
222.371
222.223
222.047
221.84
221.596
221.314
220.987
220.615
220.187
219.702
219.149
218.531
217.834
217.061
216.191
215.224
214.15
212.971
211.688
210.284
208.765
207.129
205.331
203.445
201.387
199.256
196.958
194.561
192.244
189.799
187.346
184.973
182.626
180.546
178.762
177.451
176.576
173.777
223.708
223.451
223.455
223.327
223.047
222.796
222.67
222.654
222.799
223.174
223.717
224.236
224.581
224.741
224.778
224.756
224.672
224.538
224.384
224.214
224.042
223.878
223.728
223.594
223.475
223.368
223.271
223.182
223.099
223.022
222.952
222.889
222.834
222.786
222.744
222.707
222.674
222.644
222.616
222.589
222.565
222.542
222.522
222.504
222.488
222.476
222.467
222.462
222.461
222.463
222.468
222.477
222.488
222.503
222.521
222.542
222.566
222.594
222.624
222.656
222.691
222.729
222.768
222.809
222.851
222.894
222.937
222.98
223.023
223.064
223.103
223.14
223.173
223.202
223.226
223.243
223.254
223.256
223.248
223.228
223.194
223.145
223.079
222.993
222.886
222.755
222.596
222.406
222.18
221.916
221.609
221.252
220.843
220.372
219.839
219.234
218.555
217.784
216.926
215.967
214.906
213.737
212.442
211.025
209.468
207.786
205.979
204.059
201.988
199.893
197.649
195.399
193.079
190.625
188.234
185.783
183.451
181.382
179.632
178.336
174.867
223.597
223.447
223.476
223.407
223.172
222.88
222.685
222.606
222.61
222.749
223.114
223.65
224.158
224.493
224.642
224.677
224.642
224.54
224.393
224.23
224.062
223.9
223.75
223.613
223.493
223.388
223.294
223.209
223.13
223.058
222.991
222.931
222.879
222.835
222.798
222.766
222.738
222.712
222.689
222.668
222.648
222.631
222.616
222.603
222.593
222.587
222.584
222.584
222.588
222.596
222.607
222.621
222.639
222.659
222.683
222.711
222.742
222.776
222.813
222.853
222.896
222.941
222.988
223.038
223.089
223.142
223.195
223.249
223.303
223.356
223.408
223.459
223.507
223.553
223.594
223.63
223.66
223.683
223.698
223.703
223.697
223.678
223.644
223.593
223.523
223.432
223.317
223.174
223.001
222.793
222.548
222.259
221.924
221.535
221.09
220.579
219.998
219.332
218.585
217.743
216.805
215.761
214.594
213.309
211.879
210.325
208.628
206.789
204.758
202.605
200.317
197.885
195.532
193.067
190.647
188.218
185.825
183.71
181.943
180.656
177.312
223.467
223.434
223.493
223.468
223.3
223.018
222.767
222.625
222.577
222.59
222.717
223.057
223.551
224.029
224.364
224.523
224.549
224.502
224.384
224.23
224.067
223.914
223.771
223.636
223.515
223.41
223.317
223.235
223.161
223.094
223.032
222.975
222.927
222.886
222.853
222.826
222.803
222.783
222.765
222.748
222.734
222.721
222.711
222.704
222.699
222.698
222.701
222.707
222.717
222.73
222.746
222.767
222.79
222.817
222.847
222.881
222.918
222.958
223.002
223.049
223.099
223.152
223.207
223.265
223.325
223.387
223.45
223.515
223.579
223.644
223.709
223.773
223.835
223.896
223.953
224.007
224.056
224.1
224.137
224.165
224.184
224.193
224.191
224.173
224.139
224.087
224.014
223.918
223.795
223.642
223.455
223.231
222.965
222.649
222.283
221.854
221.363
220.799
220.164
219.441
218.628
217.71
216.674
215.525
214.245
212.849
211.306
209.62
207.803
205.792
203.719
201.347
198.891
196.304
193.585
190.992
188.284
185.876
183.73
182.087
177.878
223.331
223.421
223.51
223.509
223.407
223.167
222.898
222.696
222.596
222.574
222.601
222.72
223.011
223.432
223.859
224.177
224.331
224.357
224.306
224.199
224.061
223.92
223.784
223.656
223.537
223.432
223.34
223.259
223.19
223.128
223.07
223.018
222.973
222.937
222.908
222.885
222.867
222.853
222.84
222.829
222.819
222.812
222.807
222.805
222.805
222.81
222.818
222.83
222.845
222.864
222.886
222.912
222.942
222.974
223.01
223.05
223.094
223.141
223.192
223.245
223.303
223.363
223.426
223.492
223.56
223.631
223.704
223.778
223.853
223.929
224.006
224.082
224.158
224.233
224.306
224.376
224.443
224.506
224.563
224.614
224.658
224.692
224.715
224.728
224.728
224.711
224.678
224.623
224.546
224.442
224.31
224.145
223.943
223.699
223.41
223.068
222.67
222.206
221.672
221.053
220.346
219.538
218.624
217.603
216.456
215.188
213.761
212.195
210.482
208.635
206.613
204.422
202.043
199.691
197.126
194.616
191.939
189.542
187.364
185.563
181.122
223.224
223.391
223.507
223.536
223.483
223.295
223.038
222.811
222.659
222.598
222.597
222.641
222.755
222.974
223.297
223.656
223.945
224.103
224.151
224.12
224.039
223.92
223.787
223.66
223.546
223.448
223.362
223.286
223.22
223.163
223.109
223.061
223.021
222.988
222.963
222.946
222.933
222.924
222.917
222.911
222.906
222.904
222.903
222.906
222.912
222.922
222.935
222.952
222.973
222.998
223.026
223.058
223.093
223.131
223.173
223.219
223.269
223.322
223.379
223.44
223.504
223.571
223.642
223.715
223.792
223.871
223.953
224.036
224.122
224.208
224.296
224.384
224.473
224.561
224.649
224.734
224.818
224.899
224.975
225.047
225.113
225.172
225.223
225.263
225.292
225.31
225.314
225.299
225.266
225.21
225.129
225.019
224.877
224.699
224.481
224.215
223.899
223.522
223.084
222.57
221.98
221.3
220.527
219.653
218.656
217.531
216.253
214.848
213.283
211.553
209.638
207.544
205.237
202.8
200.146
197.349
194.443
191.753
189.479
187.728
183.256
223.145
223.337
223.492
223.555
223.53
223.397
223.167
222.943
222.766
222.66
222.628
222.644
222.71
222.808
222.94
223.161
223.429
223.667
223.829
223.894
223.89
223.838
223.751
223.646
223.543
223.45
223.371
223.303
223.246
223.195
223.147
223.104
223.067
223.038
223.017
223.004
222.996
222.993
222.992
222.992
222.993
222.995
223
223.007
223.018
223.033
223.051
223.074
223.1
223.13
223.164
223.202
223.242
223.287
223.335
223.386
223.442
223.501
223.565
223.632
223.703
223.777
223.855
223.936
224.02
224.108
224.198
224.291
224.385
224.482
224.581
224.68
224.781
224.882
224.983
225.083
225.182
225.28
225.374
225.465
225.552
225.633
225.708
225.775
225.833
225.88
225.915
225.937
225.944
225.931
225.897
225.839
225.753
225.636
225.484
225.292
225.056
224.768
224.425
224.014
223.535
222.974
222.328
221.582
220.72
219.737
218.621
217.382
215.977
214.422
212.696
210.809
208.757
206.45
204.007
201.331
198.614
195.761
193.026
190.706
185.453
223.086
223.27
223.466
223.561
223.558
223.479
223.284
223.072
222.889
222.755
222.69
222.681
222.716
222.79
222.856
222.915
223.03
223.185
223.368
223.542
223.647
223.68
223.647
223.589
223.519
223.44
223.369
223.307
223.26
223.221
223.182
223.147
223.115
223.089
223.071
223.062
223.058
223.061
223.066
223.072
223.079
223.087
223.096
223.108
223.124
223.143
223.166
223.194
223.225
223.261
223.301
223.344
223.39
223.44
223.494
223.551
223.613
223.678
223.747
223.821
223.898
223.979
224.063
224.152
224.244
224.339
224.437
224.538
224.642
224.748
224.856
224.966
225.078
225.191
225.305
225.419
225.532
225.645
225.756
225.866
225.972
226.074
226.171
226.263
226.347
226.423
226.49
226.545
226.587
226.613
226.624
226.614
226.58
226.52
226.429
226.303
226.14
225.93
225.673
225.356
224.979
224.528
223.997
223.371
222.64
221.802
220.839
219.744
218.484
217.084
215.51
213.756
211.786
209.609
207.217
204.604
201.882
199.06
196.479
194.424
189.687
223.046
223.202
223.423
223.559
223.58
223.544
223.388
223.188
223.009
222.866
222.776
222.747
222.757
222.809
222.854
222.881
222.878
222.878
222.941
223.081
223.248
223.381
223.458
223.479
223.459
223.409
223.355
223.303
223.262
223.23
223.205
223.183
223.161
223.139
223.125
223.118
223.118
223.127
223.138
223.15
223.162
223.176
223.191
223.208
223.228
223.251
223.279
223.311
223.348
223.389
223.434
223.483
223.535
223.591
223.65
223.713
223.78
223.851
223.926
224.006
224.089
224.176
224.268
224.363
224.462
224.564
224.67
224.779
224.892
225.007
225.125
225.245
225.367
225.491
225.616
225.743
225.87
225.998
226.124
226.25
226.374
226.495
226.613
226.726
226.835
226.937
227.031
227.117
227.192
227.255
227.303
227.334
227.348
227.341
227.307
227.245
227.148
227.014
226.837
226.61
226.329
225.982
225.564
225.062
224.474
223.788
222.984
222.055
220.977
219.761
218.367
216.798
215.013
213.022
210.824
208.418
205.814
202.925
199.95
197.367
191.828
223.022
223.139
223.365
223.545
223.601
223.588
223.476
223.293
223.122
222.98
222.875
222.828
222.824
222.849
222.881
222.891
222.862
222.785
222.718
222.728
222.822
222.976
223.131
223.242
223.291
223.304
223.293
223.269
223.245
223.225
223.213
223.206
223.197
223.186
223.177
223.174
223.177
223.189
223.206
223.225
223.244
223.263
223.283
223.305
223.33
223.358
223.39
223.427
223.469
223.515
223.565
223.619
223.676
223.738
223.802
223.871
223.943
224.02
224.101
224.186
224.275
224.369
224.466
224.568
224.673
224.783
224.896
225.013
225.133
225.257
225.383
225.512
225.644
225.778
225.915
226.053
226.193
226.333
226.474
226.615
226.755
226.894
227.031
227.165
227.295
227.421
227.541
227.655
227.761
227.857
227.942
228.013
228.068
228.105
228.123
228.119
228.084
228.018
227.915
227.769
227.577
227.327
227.018
226.636
226.178
225.625
224.964
224.185
223.269
222.215
220.986
219.595
218.009
216.228
214.203
211.956
209.494
206.937
204.085
201.729
196.727
223.01
223.089
223.299
223.519
223.611
223.616
223.549
223.393
223.229
223.088
222.974
222.911
222.896
222.906
222.927
222.924
222.878
222.778
222.658
222.563
222.539
222.596
222.73
222.893
223.041
223.136
223.178
223.191
223.198
223.207
223.212
223.214
223.217
223.222
223.225
223.228
223.236
223.251
223.272
223.297
223.322
223.347
223.373
223.4
223.43
223.463
223.499
223.54
223.586
223.637
223.692
223.751
223.814
223.88
223.95
224.024
224.102
224.184
224.271
224.361
224.456
224.555
224.659
224.766
224.878
224.994
225.114
225.238
225.366
225.497
225.632
225.77
225.911
226.055
226.201
226.35
226.502
226.654
226.808
226.963
227.118
227.273
227.427
227.579
227.729
227.877
228.02
228.159
228.292
228.417
228.534
228.641
228.736
228.816
228.878
228.921
228.943
228.943
228.906
228.837
228.726
228.566
228.355
228.079
227.735
227.304
226.778
226.148
225.394
224.511
223.466
222.266
220.877
219.288
217.452
215.364
213.017
210.451
207.679
204.926
199.678
223.004
223.053
223.234
223.482
223.609
223.642
223.608
223.482
223.326
223.188
223.07
222.993
222.968
222.97
222.98
222.97
222.911
222.793
222.652
222.522
222.418
222.373
222.406
222.52
222.686
222.854
222.985
223.067
223.12
223.157
223.186
223.204
223.22
223.24
223.259
223.275
223.29
223.309
223.334
223.365
223.396
223.428
223.459
223.492
223.527
223.564
223.605
223.651
223.701
223.756
223.815
223.879
223.947
224.019
224.094
224.173
224.256
224.343
224.435
224.531
224.631
224.736
224.845
224.958
225.076
225.198
225.325
225.455
225.59
225.728
225.871
226.017
226.166
226.318
226.474
226.633
226.794
226.958
227.124
227.291
227.46
227.629
227.798
227.968
228.136
228.303
228.467
228.629
228.786
228.939
229.085
229.223
229.353
229.471
229.576
229.666
229.735
229.785
229.811
229.813
229.775
229.7
229.578
229.402
229.168
228.86
228.473
227.995
227.407
226.698
225.844
224.842
223.653
222.266
220.643
218.791
216.686
214.393
211.897
209.358
204.589
223.002
223.03
223.175
223.433
223.601
223.667
223.652
223.558
223.413
223.28
223.164
223.078
223.04
223.034
223.034
223.017
222.951
222.821
222.666
222.517
222.386
222.285
222.231
222.251
222.35
222.518
222.704
222.863
222.977
223.056
223.117
223.174
223.214
223.245
223.276
223.31
223.339
223.365
223.394
223.429
223.466
223.504
223.542
223.58
223.62
223.662
223.707
223.757
223.812
223.871
223.935
224.003
224.076
224.152
224.233
224.317
224.405
224.497
224.593
224.694
224.8
224.91
225.024
225.143
225.266
225.394
225.526
225.663
225.804
225.949
226.099
226.252
226.409
226.57
226.734
226.902
227.073
227.247
227.423
227.602
227.783
227.965
228.149
228.333
228.517
228.701
228.885
229.066
229.246
229.422
229.594
229.76
229.92
230.072
230.214
230.344
230.46
230.56
230.639
230.695
230.725
230.728
230.688
230.605
230.47
230.273
230.009
229.661
229.216
228.661
227.973
227.139
226.127
224.936
223.532
221.899
219.987
217.868
215.415
212.924
208.584
223.001
223.016
223.126
223.379
223.592
223.683
223.681
223.619
223.491
223.366
223.256
223.165
223.113
223.095
223.084
223.056
222.988
222.853
222.688
222.527
222.381
222.255
222.163
222.115
222.129
222.221
222.39
222.588
222.773
222.919
223.028
223.115
223.182
223.231
223.276
223.326
223.374
223.414
223.45
223.489
223.532
223.576
223.62
223.664
223.709
223.756
223.806
223.86
223.919
223.982
224.05
224.123
224.2
224.281
224.366
224.455
224.548
224.645
224.746
224.852
224.962
225.077
225.196
225.32
225.449
225.582
225.72
225.862
226.009
226.161
226.316
226.477
226.64
226.808
226.98
227.156
227.336
227.519
227.705
227.894
228.086
228.28
228.476
228.673
228.872
229.071
229.271
229.471
229.67
229.867
230.062
230.253
230.441
230.622
230.797
230.963
231.118
231.261
231.389
231.5
231.587
231.65
231.684
231.687
231.642
231.549
231.396
231.171
230.865
230.463
229.944
229.299
228.495
227.526
226.352
224.943
223.269
221.347
219.123
216.722
212.89
223
223.009
223.09
223.327
223.576
223.694
223.706
223.668
223.559
223.445
223.343
223.251
223.187
223.153
223.128
223.087
223.012
222.88
222.713
222.542
222.387
222.25
222.135
222.056
222.024
222.04
222.133
222.304
222.514
222.716
222.885
223.015
223.115
223.2
223.268
223.33
223.393
223.452
223.5
223.546
223.594
223.644
223.694
223.743
223.794
223.846
223.9
223.959
224.022
224.089
224.162
224.238
224.32
224.405
224.495
224.588
224.685
224.786
224.892
225.003
225.117
225.237
225.361
225.49
225.623
225.761
225.904
226.052
226.204
226.361
226.523
226.69
226.86
227.035
227.213
227.397
227.584
227.775
227.97
228.169
228.37
228.574
228.781
228.991
229.202
229.416
229.63
229.846
230.062
230.277
230.492
230.705
230.916
231.124
231.327
231.524
231.714
231.894
232.065
232.221
232.362
232.484
232.58
232.65
232.686
232.69
232.638
232.531
232.353
232.095
231.738
231.269
230.654
229.885
228.917
227.734
226.309
224.604
222.637
220.319
216.933
223
223.005
223.065
223.282
223.555
223.7
223.729
223.706
223.619
223.516
223.424
223.334
223.259
223.208
223.165
223.111
223.024
222.893
222.73
222.558
222.397
222.255
222.131
222.032
221.971
221.958
221.982
222.083
222.26
222.481
222.699
222.884
223.03
223.148
223.242
223.321
223.4
223.476
223.542
223.598
223.652
223.708
223.764
223.819
223.874
223.931
223.99
224.053
224.121
224.193
224.269
224.35
224.435
224.525
224.618
224.716
224.817
224.923
225.033
225.148
225.267
225.391
225.519
225.652
225.79
225.933
226.081
226.233
226.391
226.553
226.72
226.892
227.068
227.249
227.434
227.624
227.818
228.017
228.22
228.426
228.636
228.85
229.066
229.286
229.509
229.734
229.961
230.191
230.421
230.653
230.886
231.118
231.349
231.579
231.807
232.031
232.251
232.464
232.671
232.868
233.053
233.225
233.379
233.513
233.618
233.694
233.734
233.735
233.669
233.542
233.326
233.015
232.576
231.998
231.232
230.268
229.056
227.564
225.822
223.681
220.654
223
223.003
223.048
223.247
223.535
223.705
223.75
223.738
223.669
223.58
223.497
223.411
223.327
223.257
223.192
223.123
223.024
222.891
222.73
222.564
222.406
222.261
222.134
222.028
221.949
221.913
221.915
221.955
222.067
222.258
222.492
222.719
222.912
223.066
223.192
223.299
223.394
223.489
223.573
223.643
223.705
223.767
223.829
223.889
223.95
224.012
224.076
224.143
224.215
224.291
224.372
224.457
224.546
224.639
224.737
224.838
224.943
225.053
225.167
225.286
225.409
225.537
225.67
225.807
225.949
226.096
226.249
226.406
226.567
226.734
226.906
227.083
227.265
227.451
227.642
227.837
228.038
228.243
228.453
228.667
228.884
229.106
229.331
229.56
229.793
230.028
230.267
230.508
230.752
230.997
231.245
231.493
231.742
231.992
232.241
232.488
232.733
232.975
233.212
233.443
233.667
233.881
234.084
234.271
234.439
234.586
234.7
234.783
234.824
234.821
234.738
234.585
234.322
233.948
233.414
232.711
231.759
230.53
229.004
227.053
224.299
223
223.002
223.038
223.222
223.518
223.711
223.768
223.764
223.714
223.638
223.564
223.481
223.387
223.297
223.211
223.12
223.008
222.87
222.714
222.558
222.408
222.266
222.138
222.029
221.943
221.894
221.881
221.894
221.955
222.089
222.299
222.541
222.771
222.967
223.129
223.265
223.383
223.492
223.594
223.68
223.753
223.823
223.89
223.956
224.022
224.089
224.158
224.23
224.306
224.386
224.471
224.559
224.652
224.75
224.851
224.956
225.065
225.179
225.296
225.419
225.546
225.678
225.814
225.955
226.102
226.253
226.409
226.57
226.736
226.907
227.084
227.265
227.452
227.643
227.839
228.04
228.246
228.457
228.672
228.893
229.117
229.346
229.579
229.816
230.057
230.301
230.549
230.801
231.056
231.313
231.574
231.836
232.1
232.366
232.632
232.9
233.166
233.431
233.695
233.955
234.211
234.462
234.705
234.937
235.157
235.362
235.547
235.708
235.833
235.922
235.963
235.95
235.841
235.644
235.305
234.818
234.094
233.119
231.808
230.082
227.589
223
223.002
223.034
223.207
223.508
223.719
223.785
223.788
223.754
223.691
223.625
223.541
223.434
223.321
223.214
223.1
222.975
222.835
222.685
222.537
222.397
222.264
222.14
222.032
221.945
221.888
221.867
221.867
221.898
221.987
222.149
222.376
222.623
222.852
223.049
223.215
223.359
223.486
223.606
223.71
223.795
223.873
223.947
224.019
224.09
224.161
224.235
224.311
224.392
224.476
224.565
224.658
224.754
224.855
224.96
225.068
225.181
225.298
225.42
225.546
225.676
225.812
225.952
226.096
226.246
226.401
226.561
226.726
226.896
227.071
227.251
227.437
227.628
227.823
228.023
228.229
228.44
228.656
228.878
229.103
229.334
229.569
229.808
230.052
230.3
230.553
230.809
231.07
231.334
231.602
231.873
232.147
232.424
232.704
232.986
233.269
233.554
233.839
234.124
234.409
234.692
234.973
235.249
235.52
235.784
236.037
236.278
236.501
236.704
236.879
237.014
237.108
237.145
237.108
236.964
236.708
236.262
235.604
234.553
233.111
230.814
223
223.002
223.032
223.202
223.506
223.729
223.803
223.813
223.791
223.739
223.676
223.587
223.463
223.328
223.199
223.063
222.927
222.788
222.644
222.504
222.375
222.254
222.138
222.034
221.948
221.889
221.862
221.859
221.873
221.933
222.056
222.245
222.484
222.733
222.96
223.158
223.329
223.479
223.615
223.733
223.832
223.919
224
224.078
224.154
224.23
224.308
224.389
224.474
224.563
224.656
224.752
224.853
224.957
225.065
225.177
225.293
225.413
225.538
225.667
225.801
225.94
226.084
226.232
226.385
226.543
226.707
226.875
227.048
227.227
227.411
227.601
227.795
227.995
228.199
228.409
228.624
228.845
229.071
229.302
229.538
229.778
230.023
230.273
230.528
230.787
231.051
231.319
231.592
231.868
232.149
232.433
232.721
233.013
233.307
233.605
233.905
234.206
234.51
234.815
235.12
235.426
235.73
236.032
236.331
236.624
236.911
237.187
237.451
237.698
237.922
238.116
238.268
238.368
238.403
238.346
238.144
237.769
237.016
235.988
233.945
223
223.002
223.033
223.206
223.514
223.743
223.823
223.839
223.827
223.783
223.716
223.613
223.469
223.316
223.157
223.007
222.868
222.733
222.595
222.463
222.345
222.235
222.13
222.035
221.952
221.892
221.864
221.858
221.867
221.909
222.004
222.159
222.37
222.619
222.869
223.095
223.292
223.465
223.617
223.751
223.864
223.961
224.049
224.133
224.214
224.296
224.378
224.464
224.553
224.646
224.743
224.843
224.947
225.054
225.166
225.281
225.4
225.523
225.651
225.784
225.921
226.063
226.209
226.361
226.517
226.678
226.845
227.016
227.193
227.375
227.563
227.756
227.954
228.157
228.365
228.579
228.799
229.024
229.254
229.489
229.73
229.975
230.225
230.481
230.741
231.007
231.277
231.551
231.831
232.115
232.404
232.697
232.995
233.296
233.601
233.911
234.223
234.539
234.858
235.18
235.503
235.829
236.157
236.484
236.812
237.138
237.462
237.781
238.094
238.398
238.689
238.961
239.209
239.417
239.578
239.674
239.7
239.58
239.195
238.635
237.15
223
223.002
223.037
223.219
223.531
223.762
223.846
223.867
223.859
223.818
223.74
223.618
223.455
223.27
223.094
222.939
222.802
222.671
222.542
222.417
222.31
222.21
222.118
222.033
221.957
221.898
221.868
221.861
221.868
221.903
221.98
222.108
222.291
222.524
222.782
223.03
223.253
223.449
223.619
223.768
223.894
224
224.096
224.186
224.272
224.358
224.446
224.536
224.629
224.726
224.826
224.93
225.037
225.148
225.263
225.381
225.503
225.629
225.76
225.895
226.035
226.18
226.33
226.484
226.643
226.808
226.977
227.152
227.331
227.517
227.708
227.904
228.105
228.311
228.523
228.741
228.964
229.193
229.427
229.667
229.911
230.161
230.416
230.676
230.942
231.212
231.488
231.769
232.055
232.346
232.642
232.943
233.248
233.558
233.873
234.192
234.516
234.844
235.176
235.511
235.85
236.193
236.539
236.888
237.239
237.592
237.945
238.299
238.651
239
239.343
239.678
240.001
240.306
240.584
240.815
241.003
241.103
241.091
240.863
240.14
223
223.003
223.044
223.241
223.558
223.787
223.871
223.894
223.886
223.84
223.745
223.601
223.404
223.198
223.015
222.863
222.731
222.606
222.484
222.371
222.272
222.183
222.103
222.029
221.962
221.907
221.875
221.866
221.873
221.904
221.972
222.081
222.24
222.454
222.708
222.971
223.216
223.432
223.62
223.783
223.921
224.037
224.14
224.236
224.327
224.418
224.509
224.604
224.701
224.802
224.906
225.013
225.124
225.238
225.355
225.476
225.601
225.73
225.864
226.002
226.145
226.292
226.445
226.602
226.764
226.931
227.104
227.281
227.464
227.652
227.846
228.045
228.25
228.459
228.674
228.895
229.122
229.354
229.592
229.836
230.084
230.338
230.597
230.862
231.132
231.408
231.689
231.975
232.267
232.564
232.867
233.175
233.487
233.805
234.128
234.456
234.79
235.128
235.47
235.818
236.17
236.527
236.889
237.255
237.624
237.998
238.375
238.755
239.137
239.521
239.904
240.287
240.664
241.035
241.392
241.726
242.035
242.297
242.538
242.617
242.544
223
223.004
223.056
223.273
223.594
223.818
223.898
223.917
223.903
223.845
223.731
223.547
223.324
223.109
222.928
222.782
222.656
222.539
222.426
222.325
222.235
222.156
222.087
222.023
221.964
221.915
221.884
221.874
221.879
221.908
221.972
222.069
222.209
222.405
222.65
222.92
223.182
223.418
223.624
223.799
223.948
224.073
224.182
224.283
224.38
224.475
224.571
224.669
224.771
224.875
224.983
225.093
225.207
225.324
225.444
225.567
225.695
225.827
225.963
226.104
226.249
226.4
226.555
226.714
226.879
227.049
227.224
227.404
227.589
227.781
227.978
228.18
228.387
228.599
228.817
229.041
229.271
229.507
229.749
229.996
230.248
230.506
230.769
231.038
231.312
231.593
231.878
232.17
232.467
232.77
233.078
233.392
233.711
234.036
234.366
234.702
235.043
235.39
235.743
236.1
236.463
236.832
237.207
237.586
237.971
238.362
238.757
239.157
239.561
239.97
240.382
240.796
241.211
241.626
242.035
242.436
242.82
243.198
243.545
243.795
244.047
223
223.006
223.073
223.314
223.638
223.852
223.925
223.932
223.909
223.834
223.678
223.46
223.223
223.01
222.837
222.699
222.582
222.473
222.371
222.279
222.2
222.131
222.071
222.016
221.965
221.922
221.893
221.882
221.886
221.914
221.976
222.067
222.193
222.374
222.61
222.881
223.155
223.408
223.628
223.815
223.974
224.107
224.223
224.329
224.43
224.529
224.629
224.732
224.837
224.945
225.056
225.17
225.286
225.406
225.528
225.655
225.785
225.919
226.058