/*--------------------------------*- C++ -*----------------------------------*\
| =========                 |                                                 |
| \\      /  F ield         | OpenFOAM: The Open Source CFD Toolbox           |
|  \\    /   O peration     | Version:  2412                                  |
|   \\  /    A nd           | Website:  www.openfoam.com                      |
|    \\/     M anipulation  |                                                 |
\*---------------------------------------------------------------------------*/
FoamFile
{
    version     2.0;
    format      ascii;
    arch        "LSB;label=32;scalar=64";
    class       volScalarField;
    location    "0.103";
    object      rho;
}
// * * * * * * * * * * * * * * * * * * * * * * * * * * * * * * * * * * * * * //

dimensions      [1 -3 0 0 0 0 0];

internalField   nonuniform List<scalar> 
9816
(
0.0440302
0.0440345
0.0440374
0.0440391
0.0440396
0.0440392
0.0440378
0.0440356
0.0440326
0.0440286
0.0440237
0.0440178
0.0440111
0.0440038
0.0439957
0.0439871
0.0439781
0.0439682
0.0439601
0.0439507
0.0439425
0.0439342
0.043926
0.0439178
0.0439094
0.0439002
0.0438898
0.0438772
0.0438622
0.0438459
0.0438272
0.0438037
0.0437706
0.0437278
0.0436723
0.0436099
0.0435372
0.0434635
0.0433819
0.0433044
0.0432222
0.0431577
0.0432928
0.0432827
0.0432723
0.0432614
0.0432504
0.0432394
0.0432281
0.0432171
0.0432062
0.0431951
0.0431841
0.0431731
0.043162
0.0431509
0.0431413
0.0431314
0.0431235
0.0431159
0.0431097
0.0431041
0.0430992
0.0430941
0.0430883
0.0430807
0.0430722
0.0430618
0.0430495
0.0430253
0.0429903
0.0429387
0.0428781
0.0428068
0.0427347
0.0426602
0.042592
0.042528
0.0424751
0.0424306
0.0423997
0.042378
0.0423668
0.0423574
0.0429543
0.0429458
0.0429374
0.0429293
0.0429212
0.042913
0.042906
0.0428983
0.0428914
0.0428843
0.0428775
0.042871
0.0428651
0.0428596
0.0428548
0.0428507
0.0428471
0.0428438
0.0428401
0.0428356
0.0428299
0.0428238
0.0428153
0.0428035
0.0427844
0.0427577
0.0427201
0.0426732
0.0426159
0.0425515
0.042482
0.0424135
0.0423478
0.042289
0.0422493
0.0422252
0.0421986
0.0421823
0.0421825
0.042185
0.0421883
0.0421929
0.0427502
0.0427436
0.042738
0.042732
0.0427264
0.0427207
0.0427152
0.0427097
0.0427043
0.0426991
0.0426942
0.0426897
0.0426857
0.0426823
0.0426794
0.0426768
0.042674
0.0426705
0.0426661
0.0426613
0.0426551
0.0426464
0.0426327
0.0426122
0.0425817
0.0425405
0.0424877
0.042426
0.0423574
0.0422874
0.0422231
0.0421684
0.0421179
0.0420884
0.0420821
0.042073
0.0420587
0.0420522
0.0420533
0.0420578
0.0420675
0.0420782
0.0426143
0.0426096
0.0426051
0.0426005
0.0425961
0.0425916
0.0425871
0.0425826
0.0425784
0.0425744
0.0425709
0.042568
0.0425656
0.0425637
0.042562
0.04256
0.0425572
0.0425539
0.0425499
0.0425452
0.0425375
0.042526
0.042507
0.0424797
0.0424403
0.0423902
0.0423287
0.0422611
0.0421917
0.0421264
0.0420685
0.0420316
0.04201
0.0419864
0.0419738
0.0419757
0.0419803
0.0419814
0.0419812
0.0419814
0.0419831
0.0419876
0.0425212
0.0425173
0.0425133
0.0425094
0.0425057
0.042502
0.0424987
0.0424955
0.0424928
0.0424905
0.0424887
0.0424873
0.0424863
0.0424853
0.0424841
0.0424822
0.0424797
0.0424767
0.0424732
0.0424675
0.0424589
0.0424441
0.0424223
0.0423896
0.0423464
0.0422913
0.0422284
0.0421613
0.0420954
0.0420367
0.0419945
0.0419663
0.0419413
0.0419317
0.0419347
0.0419366
0.041934
0.0419278
0.0419256
0.0419264
0.0419311
0.041939
0.0424474
0.0424447
0.0424419
0.0424397
0.0424373
0.0424351
0.0424328
0.0424307
0.0424288
0.0424273
0.0424262
0.0424255
0.042425
0.0424243
0.0424232
0.0424214
0.0424194
0.0424171
0.0424131
0.042407
0.0423961
0.0423796
0.0423539
0.0423189
0.0422722
0.0422169
0.0421545
0.0420914
0.0420312
0.0419833
0.0419485
0.0419198
0.0419035
0.0419041
0.041906
0.0419019
0.0418941
0.0418898
0.0418906
0.0418937
0.0418995
0.041907
0.0423957
0.0423938
0.0423919
0.0423898
0.0423878
0.042386
0.0423843
0.0423829
0.0423818
0.0423811
0.0423807
0.0423805
0.0423802
0.0423796
0.0423785
0.0423771
0.0423754
0.0423726
0.0423681
0.0423601
0.0423475
0.0423276
0.0422994
0.0422612
0.0422139
0.0421588
0.0420997
0.0420411
0.0419888
0.0419477
0.041914
0.0418915
0.0418859
0.0418849
0.0418785
0.0418701
0.0418679
0.0418688
0.0418717
0.0418754
0.041879
0.0418822
0.0423566
0.0423551
0.0423538
0.0423525
0.0423512
0.0423501
0.0423491
0.042348
0.0423477
0.0423473
0.0423472
0.0423469
0.0423465
0.0423456
0.0423446
0.0423433
0.0423412
0.0423378
0.0423319
0.0423224
0.0423072
0.0422852
0.0422544
0.042215
0.0421671
0.0421137
0.0420578
0.0420048
0.0419579
0.0419192
0.0418933
0.0418813
0.0418701
0.0418596
0.0418577
0.0418592
0.0418612
0.0418619
0.0418606
0.0418588
0.0418583
0.0418599
0.042324
0.042323
0.0423223
0.0423214
0.0423206
0.0423198
0.0423192
0.0423187
0.0423184
0.0423182
0.042318
0.0423176
0.042317
0.0423161
0.0423151
0.0423136
0.0423112
0.0423072
0.0423002
0.0422893
0.0422724
0.0422487
0.0422164
0.0421764
0.0421288
0.042077
0.0420238
0.0419746
0.0419317
0.0418966
0.0418741
0.0418641
0.0418537
0.0418441
0.0418426
0.0418446
0.0418475
0.0418473
0.0418458
0.041844
0.0418429
0.0418443
0.0422986
0.042298
0.0422974
0.0422968
0.0422962
0.0422956
0.0422952
0.0422949
0.0422947
0.0422945
0.0422943
0.042294
0.0422934
0.0422927
0.0422919
0.0422905
0.0422882
0.0422839
0.0422769
0.0422655
0.0422489
0.0422251
0.0421939
0.042155
0.0421101
0.0420613
0.0420117
0.0419651
0.0419242
0.0418913
0.0418657
0.041852
0.041846
0.0418386
0.0418323
0.041832
0.0418335
0.0418359
0.0418362
0.0418353
0.0418341
0.041834
0.0422748
0.0422743
0.0422739
0.0422735
0.0422732
0.0422729
0.0422729
0.042273
0.0422733
0.0422736
0.0422739
0.042274
0.042274
0.042274
0.0422736
0.0422727
0.0422707
0.0422669
0.0422606
0.0422501
0.0422348
0.0422132
0.0421849
0.0421499
0.042109
0.042064
0.0420173
0.0419721
0.0419309
0.0418963
0.0418691
0.0418486
0.0418365
0.0418317
0.0418274
0.0418224
0.0418206
0.0418216
0.0418239
0.0418249
0.0418249
0.0418246
0.042256
0.042256
0.0422562
0.0422564
0.0422567
0.0422571
0.0422575
0.0422578
0.0422581
0.0422585
0.0422586
0.0422586
0.0422586
0.0422585
0.0422582
0.0422573
0.0422557
0.0422525
0.0422472
0.0422386
0.042226
0.042208
0.0421843
0.0421539
0.042118
0.0420771
0.0420338
0.0419897
0.0419482
0.0419107
0.0418796
0.041855
0.0418385
0.0418271
0.0418188
0.0418154
0.0418162
0.0418165
0.0418147
0.0418128
0.0418127
0.0418133
0.0422436
0.042244
0.0422443
0.0422446
0.0422448
0.0422452
0.0422456
0.042246
0.0422465
0.042247
0.0422474
0.0422477
0.0422479
0.0422481
0.042248
0.0422475
0.0422466
0.0422442
0.0422405
0.0422339
0.0422242
0.0422095
0.0421903
0.0421645
0.042134
0.0420974
0.0420579
0.0420156
0.0419741
0.0419344
0.0418996
0.04187
0.041848
0.0418317
0.0418194
0.0418132
0.0418129
0.0418126
0.0418095
0.0418064
0.0418062
0.0418069
0.0422351
0.0422355
0.0422358
0.0422361
0.0422365
0.0422369
0.0422373
0.0422376
0.0422381
0.0422385
0.042239
0.0422394
0.0422399
0.0422402
0.0422404
0.0422403
0.0422397
0.0422383
0.0422354
0.0422307
0.0422227
0.0422115
0.0421953
0.0421746
0.0421478
0.0421164
0.04208
0.0420409
0.0419999
0.0419599
0.041922
0.0418888
0.0418609
0.04184
0.0418243
0.0418125
0.0418073
0.0418074
0.0418063
0.0418023
0.0417997
0.0417996
0.0422293
0.0422299
0.0422305
0.0422311
0.0422317
0.0422324
0.0422332
0.0422341
0.0422349
0.0422357
0.0422365
0.0422371
0.0422377
0.0422381
0.0422383
0.0422382
0.0422377
0.0422366
0.0422342
0.0422304
0.042224
0.0422149
0.0422014
0.0421838
0.0421608
0.0421332
0.0421004
0.0420642
0.0420251
0.0419856
0.0419468
0.0419109
0.0418791
0.041853
0.0418329
0.0418168
0.0418067
0.0418036
0.0418017
0.0417974
0.0417942
0.0417947
0.0422269
0.0422277
0.0422284
0.0422292
0.04223
0.0422307
0.0422314
0.0422321
0.0422329
0.0422336
0.0422343
0.042235
0.0422355
0.042236
0.0422363
0.0422363
0.042236
0.0422353
0.0422335
0.0422304
0.0422252
0.0422176
0.0422064
0.0421915
0.0421718
0.0421477
0.0421187
0.0420859
0.0420496
0.0420118
0.0419733
0.0419364
0.0419019
0.0418717
0.0418465
0.0418268
0.041811
0.041801
0.0417975
0.0417945
0.0417897
0.0417874
0.0422272
0.042228
0.0422288
0.0422296
0.0422304
0.0422312
0.0422319
0.0422327
0.0422335
0.0422342
0.042235
0.0422356
0.0422362
0.0422367
0.042237
0.0422371
0.0422369
0.0422363
0.0422349
0.0422325
0.0422284
0.0422222
0.0422132
0.0422008
0.0421846
0.0421641
0.0421394
0.0421104
0.0420781
0.042043
0.0420065
0.0419697
0.0419343
0.0419012
0.0418717
0.0418462
0.0418259
0.0418107
0.0417983
0.0417904
0.0417883
0.0417863
0.0422264
0.0422272
0.042228
0.0422288
0.0422296
0.0422303
0.0422311
0.0422319
0.0422327
0.0422334
0.0422342
0.042235
0.0422357
0.0422364
0.0422369
0.0422372
0.0422373
0.0422369
0.0422362
0.0422345
0.0422316
0.042227
0.0422203
0.0422107
0.0421981
0.0421817
0.0421618
0.0421378
0.0421105
0.0420799
0.042047
0.0420124
0.0419775
0.0419431
0.0419106
0.0418809
0.0418548
0.0418329
0.0418156
0.0418018
0.041791
0.0417847
0.0422263
0.0422272
0.0422281
0.042229
0.0422298
0.0422306
0.0422314
0.0422323
0.0422331
0.0422339
0.0422347
0.0422355
0.0422362
0.0422368
0.0422373
0.0422375
0.0422376
0.0422375
0.042237
0.042236
0.0422341
0.042231
0.0422265
0.0422201
0.0422113
0.0421995
0.0421849
0.0421672
0.0421457
0.0421208
0.042093
0.0420628
0.0420308
0.0419975
0.0419639
0.0419311
0.0419003
0.0418721
0.0418478
0.0418268
0.0418097
0.0417958
0.0422294
0.0422303
0.0422311
0.0422319
0.0422327
0.0422335
0.0422342
0.042235
0.0422357
0.0422366
0.0422373
0.042238
0.0422387
0.0422392
0.0422397
0.04224
0.0422401
0.04224
0.0422396
0.042239
0.0422377
0.0422358
0.0422328
0.0422285
0.0422224
0.0422147
0.0422041
0.0421907
0.0421743
0.0421552
0.0421327
0.0421069
0.042078
0.0420467
0.0420139
0.0419804
0.0419472
0.0419153
0.0418855
0.0418583
0.0418343
0.0418132
0.042232
0.042233
0.042234
0.042235
0.0422359
0.0422369
0.0422378
0.0422387
0.0422397
0.0422406
0.0422416
0.0422425
0.0422434
0.0422442
0.0422449
0.0422455
0.0422459
0.0422461
0.0422461
0.0422458
0.0422451
0.0422437
0.0422415
0.0422379
0.0422331
0.0422266
0.0422179
0.0422061
0.0421917
0.0421742
0.0421536
0.0421293
0.0421019
0.0420716
0.0420394
0.0420057
0.0419718
0.0419384
0.0419065
0.0418769
0.0418499
0.041826
0.0422335
0.0422346
0.0422356
0.0422365
0.0422375
0.0422384
0.0422393
0.0422403
0.0422412
0.0422422
0.0422431
0.042244
0.0422448
0.0422456
0.0422462
0.0422468
0.0422471
0.0422473
0.0422472
0.0422468
0.042246
0.0422445
0.0422422
0.0422386
0.0422337
0.0422268
0.0422178
0.042206
0.0421916
0.0421737
0.0421529
0.0421284
0.0421011
0.0420707
0.0420385
0.0420046
0.0419707
0.0419371
0.0419052
0.0418753
0.0418481
0.0418237
0.0422343
0.0422354
0.0422364
0.0422374
0.0422384
0.0422393
0.0422403
0.0422412
0.0422421
0.0422431
0.042244
0.0422449
0.0422457
0.0422465
0.0422471
0.0422477
0.042248
0.0422482
0.0422481
0.0422476
0.0422467
0.042245
0.0422425
0.0422385
0.0422332
0.0422256
0.0422158
0.0422032
0.0421876
0.0421687
0.0421464
0.0421207
0.042092
0.0420607
0.0420275
0.0419932
0.0419587
0.0419251
0.0418932
0.0418635
0.0418366
0.0418125
0.0422337
0.0422349
0.042236
0.0422371
0.0422382
0.0422392
0.0422403
0.0422414
0.0422424
0.0422434
0.0422445
0.0422454
0.0422463
0.042247
0.0422477
0.0422481
0.0422483
0.0422483
0.042248
0.0422474
0.0422459
0.0422437
0.0422401
0.0422352
0.0422281
0.0422189
0.0422067
0.0421917
0.042173
0.0421511
0.0421255
0.0420969
0.0420652
0.0420315
0.0419963
0.0419608
0.0419258
0.0418925
0.0418615
0.0418335
0.0418086
0.041787
0.0422317
0.042233
0.0422343
0.0422355
0.0422368
0.042238
0.0422391
0.0422403
0.0422414
0.0422426
0.0422436
0.0422446
0.0422454
0.0422462
0.0422467
0.042247
0.042247
0.0422467
0.042246
0.0422445
0.0422423
0.0422385
0.0422334
0.042226
0.0422164
0.0422036
0.0421878
0.0421681
0.042145
0.0421181
0.0420878
0.0420544
0.0420188
0.0419818
0.0419444
0.0419078
0.0418732
0.0418413
0.0418131
0.0417887
0.0417683
0.0417515
0.0422282
0.0422296
0.042231
0.0422324
0.0422337
0.042235
0.0422363
0.0422376
0.0422388
0.04224
0.0422411
0.042242
0.0422429
0.0422435
0.0422438
0.0422439
0.0422436
0.0422429
0.0422414
0.042239
0.042235
0.0422294
0.0422214
0.0422109
0.0421969
0.0421798
0.0421584
0.0421334
0.042104
0.0420713
0.0420352
0.0419971
0.0419574
0.0419178
0.0418792
0.0418432
0.0418107
0.0417823
0.0417584
0.04174
0.0417264
0.0417144
0.0422232
0.0422248
0.0422263
0.0422278
0.0422292
0.0422307
0.0422321
0.0422335
0.0422348
0.0422361
0.0422372
0.0422382
0.0422389
0.0422393
0.0422395
0.0422393
0.0422385
0.042237
0.0422344
0.0422301
0.0422241
0.0422154
0.0422039
0.0421887
0.0421699
0.0421466
0.0421193
0.0420874
0.0420519
0.042013
0.0419721
0.0419298
0.0418882
0.0418479
0.041811
0.0417782
0.0417504
0.0417275
0.0417117
0.0417012
0.0416915
0.0416855
0.0422174
0.0422191
0.0422208
0.0422224
0.0422241
0.0422256
0.0422272
0.0422287
0.0422301
0.0422313
0.0422324
0.0422332
0.0422337
0.0422339
0.0422337
0.0422329
0.0422312
0.0422284
0.0422238
0.0422171
0.0422076
0.0421949
0.0421782
0.0421575
0.042132
0.0421021
0.0420674
0.0420291
0.0419874
0.0419439
0.0418997
0.0418566
0.0418158
0.0417789
0.0417472
0.0417212
0.0417002
0.0416857
0.0416788
0.0416731
0.0416667
0.0416646
0.0422114
0.0422132
0.0422149
0.0422166
0.0422183
0.04222
0.0422215
0.042223
0.0422243
0.0422255
0.0422263
0.0422269
0.0422271
0.0422268
0.0422259
0.0422239
0.0422207
0.0422154
0.0422078
0.042197
0.0421827
0.0421638
0.0421406
0.0421121
0.0420791
0.0420412
0.0419999
0.0419555
0.04191
0.0418644
0.0418209
0.0417807
0.0417453
0.0417158
0.0416922
0.0416738
0.0416622
0.0416572
0.0416525
0.041647
0.0416453
0.0416463
0.0422052
0.042207
0.0422088
0.0422106
0.0422123
0.0422139
0.0422155
0.0422169
0.0422181
0.042219
0.0422195
0.0422197
0.0422192
0.0422182
0.0422158
0.0422119
0.0422055
0.0421966
0.0421837
0.042167
0.0421451
0.0421184
0.0420861
0.0420491
0.0420073
0.0419625
0.0419155
0.0418683
0.0418223
0.0417796
0.0417414
0.0417089
0.0416824
0.0416628
0.0416489
0.041638
0.041632
0.0416314
0.0416312
0.0416286
0.0416254
0.0416244
0.042199
0.0422009
0.0422027
0.0422045
0.0422063
0.0422079
0.0422094
0.0422107
0.0422116
0.0422121
0.0422122
0.0422116
0.0422103
0.0422073
0.0422027
0.0421951
0.0421845
0.0421692
0.0421495
0.0421239
0.042093
0.0420559
0.0420142
0.041968
0.0419195
0.0418698
0.0418214
0.0417757
0.0417347
0.0416995
0.0416711
0.0416486
0.0416319
0.0416223
0.0416172
0.0416114
0.0416073
0.041607
0.0416077
0.0416084
0.0416078
0.0416062
0.0421941
0.042196
0.0421979
0.0421996
0.0422013
0.0422027
0.0422039
0.0422047
0.0422051
0.0422051
0.0422043
0.0422027
0.0421993
0.042194
0.0421854
0.0421733
0.0421559
0.0421334
0.0421041
0.042069
0.0420271
0.0419807
0.0419298
0.0418776
0.0418251
0.0417757
0.0417304
0.0416913
0.0416592
0.0416349
0.0416162
0.0416026
0.0415965
0.0415946
0.041591
0.0415866
0.0415852
0.0415849
0.0415858
0.0415871
0.0415874
0.0415866
0.0421898
0.0421916
0.0421932
0.0421947
0.0421961
0.0421973
0.042198
0.0421984
0.0421985
0.0421976
0.0421961
0.0421926
0.0421872
0.0421781
0.0421654
0.0421467
0.0421226
0.0420907
0.0420525
0.0420069
0.0419564
0.0419014
0.0418456
0.0417904
0.0417394
0.0416938
0.0416558
0.0416261
0.0416042
0.0415873
0.0415776
0.0415753
0.0415733
0.0415688
0.0415655
0.0415645
0.0415646
0.0415658
0.0415672
0.0415676
0.0415669
0.0415657
0.0421861
0.0421877
0.0421893
0.0421906
0.0421918
0.0421926
0.0421931
0.0421932
0.0421924
0.042191
0.0421877
0.0421826
0.0421739
0.0421612
0.0421427
0.042118
0.0420855
0.0420457
0.0419981
0.0419448
0.041887
0.0418278
0.0417699
0.0417164
0.0416695
0.0416311
0.0416008
0.0415789
0.0415667
0.0415593
0.0415516
0.0415476
0.0415479
0.0415488
0.0415493
0.0415482
0.0415464
0.0415448
0.0415439
0.0415437
0.0415443
0.0415456
0.0421833
0.0421848
0.0421862
0.0421874
0.0421882
0.0421888
0.0421889
0.0421883
0.042187
0.0421842
0.0421795
0.0421716
0.0421596
0.0421422
0.0421181
0.0420863
0.0420464
0.0419986
0.0419438
0.0418843
0.0418226
0.041762
0.0417055
0.0416561
0.0416149
0.0415835
0.0415624
0.0415475
0.0415361
0.0415324
0.0415331
0.0415326
0.0415298
0.0415265
0.0415251
0.0415245
0.0415248
0.041526
0.0415272
0.0415279
0.0415279
0.0415277
0.0421809
0.0421822
0.0421834
0.0421843
0.0421849
0.0421851
0.0421847
0.0421835
0.0421812
0.0421769
0.0421698
0.0421588
0.0421427
0.0421199
0.0420895
0.0420505
0.0420032
0.0419482
0.0418878
0.0418242
0.0417613
0.0417018
0.0416492
0.0416054
0.0415716
0.0415459
0.0415295
0.0415222
0.0415166
0.0415101
0.041508
0.0415078
0.0415084
0.0415087
0.0415083
0.041507
0.0415056
0.0415048
0.0415046
0.0415049
0.0415059
0.0415073
0.0421785
0.0421796
0.0421804
0.042181
0.0421812
0.0421808
0.0421798
0.0421777
0.0421738
0.0421674
0.0421573
0.0421423
0.0421207
0.0420917
0.0420537
0.0420073
0.0419524
0.0418916
0.0418266
0.0417617
0.0416996
0.0416438
0.0415966
0.0415602
0.0415322
0.0415114
0.0415017
0.0414989
0.0414936
0.0414874
0.0414854
0.0414847
0.0414859
0.0414873
0.0414877
0.041487
0.0414855
0.0414841
0.0414834
0.0414834
0.0414842
0.041486
0.0421763
0.042177
0.0421775
0.0421776
0.0421773
0.0421763
0.0421743
0.0421708
0.0421648
0.0421552
0.0421408
0.04212
0.0420916
0.0420543
0.0420081
0.0419531
0.0418915
0.0418252
0.0417583
0.0416939
0.0416359
0.0415859
0.0415456
0.0415164
0.0414971
0.0414815
0.0414718
0.04147
0.04147
0.0414678
0.0414644
0.0414624
0.0414612
0.0414611
0.0414619
0.0414632
0.0414643
0.0414648
0.041465
0.0414652
0.0414657
0.0414666
0.0421739
0.0421743
0.0421744
0.042174
0.0421731
0.0421711
0.0421677
0.0421618
0.0421524
0.0421381
0.0421174
0.0420888
0.0420513
0.0420042
0.0419482
0.041885
0.041817
0.041748
0.0416814
0.0416211
0.0415693
0.0415282
0.0414965
0.0414732
0.0414601
0.0414543
0.0414478
0.0414422
0.0414401
0.0414395
0.0414402
0.041441
0.041441
0.0414403
0.0414394
0.0414389
0.0414391
0.0414398
0.0414414
0.0414437
0.0414468
0.0414504
0.0421709
0.0421709
0.0421704
0.0421695
0.0421674
0.0421639
0.0421578
0.0421483
0.0421335
0.0421123
0.0420825
0.0420436
0.0419945
0.0419364
0.0418703
0.0417998
0.0417282
0.0416597
0.0415975
0.0415445
0.041502
0.0414715
0.04145
0.0414327
0.0414237
0.041422
0.0414208
0.0414174
0.041415
0.041413
0.0414123
0.0414127
0.0414139
0.0414152
0.0414165
0.0414177
0.041419
0.0414206
0.0414226
0.0414251
0.0414283
0.0414321
0.0421668
0.0421663
0.0421652
0.0421631
0.0421593
0.0421529
0.0421427
0.0421271
0.0421044
0.042073
0.0420314
0.0419793
0.0419174
0.0418477
0.0417735
0.0416987
0.0416279
0.0415644
0.0415116
0.0414696
0.0414372
0.0414168
0.0414071
0.0413979
0.0413899
0.0413872
0.0413865
0.0413874
0.0413882
0.041388
0.0413872
0.0413866
0.0413868
0.0413879
0.0413901
0.0413933
0.0413974
0.0414021
0.0414069
0.0414116
0.0414161
0.0414204
0.0421609
0.0421596
0.0421571
0.042153
0.042146
0.042135
0.042118
0.0420935
0.0420593
0.0420144
0.0419581
0.0418915
0.041817
0.0417383
0.0416602
0.0415869
0.041522
0.0414692
0.0414298
0.0413994
0.0413778
0.0413695
0.041366
0.0413606
0.0413554
0.041353
0.0413522
0.0413532
0.0413552
0.0413571
0.041359
0.0413609
0.0413629
0.0413655
0.0413688
0.0413729
0.0413776
0.041383
0.0413886
0.0413945
0.0414003
0.0414059
0.0421519
0.042149
0.0421443
0.0421365
0.0421241
0.0421055
0.0420783
0.0420408
0.0419913
0.04193
0.0418577
0.0417778
0.0416939
0.0416118
0.0415362
0.0414715
0.0414176
0.0413795
0.0413559
0.0413363
0.0413222
0.0413193
0.04132
0.0413201
0.041319
0.0413168
0.0413155
0.0413156
0.0413173
0.0413208
0.0413261
0.0413323
0.0413389
0.0413451
0.0413509
0.0413561
0.041361
0.0413656
0.04137
0.0413745
0.041379
0.0413836
0.0421387
0.0421331
0.0421242
0.0421101
0.0420889
0.0420582
0.0420162
0.0419613
0.0418939
0.041815
0.0417289
0.0416396
0.0415539
0.0414752
0.0414106
0.0413592
0.0413209
0.0412962
0.0412848
0.0412763
0.0412707
0.0412677
0.0412669
0.0412677
0.0412691
0.0412715
0.0412744
0.0412784
0.0412833
0.0412891
0.0412956
0.0413026
0.0413098
0.0413171
0.0413243
0.041331
0.0413373
0.0413431
0.0413485
0.0413534
0.041358
0.0413625
0.0421202
0.0421095
0.0420932
0.0420683
0.0420333
0.041985
0.0419237
0.0418479
0.0417622
0.0416681
0.0415739
0.0414831
0.0414032
0.0413371
0.0412886
0.0412518
0.041227
0.0412175
0.0412133
0.041211
0.0412086
0.0412072
0.0412071
0.0412093
0.0412135
0.0412202
0.0412281
0.041237
0.041246
0.0412549
0.0412634
0.0412715
0.0412791
0.0412864
0.0412932
0.0412998
0.0413061
0.0413119
0.0413175
0.0413227
0.0413276
0.0413323
0.0420938
0.0420742
0.0420455
0.0420042
0.0419491
0.0418785
0.0417941
0.0416984
0.0415967
0.0414955
0.0414004
0.0413193
0.0412535
0.0412044
0.0411698
0.0411522
0.0411427
0.0411382
0.0411355
0.0411344
0.0411345
0.0411363
0.041141
0.0411483
0.0411576
0.0411687
0.0411803
0.0411921
0.0412034
0.041214
0.0412237
0.0412327
0.0412409
0.0412485
0.0412555
0.041262
0.0412681
0.0412737
0.0412788
0.0412837
0.0412882
0.0412926
0.0420545
0.0420209
0.0419733
0.0419097
0.0418292
0.0417341
0.0416277
0.041517
0.041408
0.0413088
0.0412264
0.0411619
0.0411123
0.0410832
0.0410703
0.0410608
0.0410559
0.0410528
0.0410525
0.0410538
0.0410587
0.0410663
0.0410768
0.0410889
0.0411026
0.0411162
0.0411299
0.0411426
0.0411548
0.0411659
0.0411762
0.0411856
0.0411943
0.0412022
0.0412093
0.0412157
0.0412214
0.0412266
0.0412312
0.0412354
0.0412394
0.0412431
0.0419979
0.0419441
0.0418724
0.0417821
0.0416762
0.0415586
0.0414384
0.0413224
0.0412197
0.0411351
0.0410743
0.0410277
0.0409982
0.0409876
0.0409846
0.0409825
0.0409797
0.040978
0.0409796
0.0409848
0.0409944
0.0410086
0.0410249
0.0410423
0.0410589
0.0410741
0.0410874
0.0410991
0.0411093
0.0411184
0.0411266
0.0411343
0.0411417
0.0411486
0.0411554
0.0411618
0.0411679
0.0411736
0.041179
0.041184
0.0411888
0.0411932
0.0419165
0.0418378
0.0417394
0.0416232
0.0414971
0.041368
0.0412477
0.0411408
0.041053
0.0409965
0.0409648
0.0409346
0.0409177
0.0409133
0.0409169
0.0409212
0.040924
0.0409277
0.0409333
0.0409427
0.0409556
0.040972
0.0409902
0.0410091
0.0410271
0.0410433
0.0410571
0.0410684
0.0410775
0.0410848
0.0410908
0.0410961
0.0411009
0.0411055
0.0411102
0.0411151
0.0411201
0.0411252
0.0411305
0.0411358
0.0411413
0.0411468
0.0418089
0.041704
0.0415811
0.0414477
0.0413128
0.0411869
0.0410816
0.0410029
0.0409389
0.0409004
0.0408902
0.0408831
0.0408757
0.0408716
0.0408701
0.0408721
0.0408795
0.0408907
0.0409064
0.040923
0.0409403
0.0409568
0.0409727
0.0409874
0.0410009
0.0410133
0.0410246
0.0410349
0.0410443
0.0410528
0.0410606
0.0410678
0.0410744
0.0410804
0.041086
0.0410911
0.0410959
0.0411004
0.0411046
0.0411087
0.0411127
0.0411166
0.0416711
0.0415434
0.0414051
0.0412674
0.0411398
0.0410353
0.0409617
0.0409021
0.0408623
0.0408534
0.0408554
0.0408507
0.0408452
0.0408404
0.0408405
0.0408452
0.0408549
0.0408707
0.0408893
0.0409092
0.040928
0.0409449
0.0409595
0.040972
0.0409829
0.0409926
0.0410017
0.0410106
0.0410193
0.041028
0.0410366
0.0410449
0.0410528
0.0410601
0.0410669
0.0410729
0.0410783
0.0410831
0.0410874
0.0410912
0.0410947
0.041098
0.0415071
0.0413667
0.0412295
0.0411036
0.0409958
0.0409242
0.0408844
0.0408453
0.0408218
0.0408186
0.0408226
0.0408259
0.0408258
0.0408247
0.0408253
0.0408299
0.0408401
0.0408559
0.0408755
0.0408968
0.0409176
0.0409363
0.0409521
0.0409649
0.0409751
0.0409835
0.0409908
0.0409974
0.0410039
0.0410104
0.0410171
0.0410239
0.0410308
0.0410376
0.0410442
0.0410507
0.0410567
0.0410624
0.0410677
0.0410725
0.0410771
0.0410813
0.0413281
0.041192
0.0410691
0.0409693
0.0409022
0.040856
0.0408204
0.0408074
0.0408059
0.0408068
0.0408053
0.040803
0.0408029
0.0408059
0.0408124
0.0408247
0.0408405
0.0408599
0.0408801
0.0409001
0.0409182
0.0409339
0.0409469
0.0409577
0.0409668
0.0409746
0.0409816
0.0409883
0.0409949
0.0410016
0.0410083
0.041015
0.0410218
0.0410285
0.0410349
0.041041
0.0410468
0.0410521
0.0410571
0.0410617
0.0410659
0.04107
0.0411532
0.0410356
0.0409456
0.0408806
0.0408323
0.040808
0.0407998
0.0407942
0.0407902
0.0407875
0.0407863
0.0407887
0.0407947
0.0408055
0.0408194
0.0408368
0.040855
0.0408739
0.0408915
0.0409078
0.0409221
0.0409349
0.040946
0.040956
0.0409651
0.0409736
0.0409816
0.0409892
0.0409966
0.0410037
0.0410105
0.0410169
0.0410231
0.0410288
0.0410342
0.0410392
0.0410438
0.0410481
0.0410521
0.0410558
0.0410594
0.0410628
0.0410055
0.0409216
0.0408631
0.0408218
0.0407984
0.0407913
0.0407856
0.0407829
0.0407804
0.0407816
0.0407857
0.0407941
0.0408069
0.0408233
0.0408416
0.0408607
0.0408789
0.0408959
0.040911
0.0409244
0.0409362
0.0409469
0.0409567
0.0409658
0.0409744
0.0409825
0.0409902
0.0409976
0.0410045
0.0410111
0.0410172
0.0410229
0.0410282
0.0410331
0.0410377
0.041042
0.041046
0.0410497
0.0410533
0.0410567
0.0410599
0.0410632
0.0409028
0.0408522
0.0408172
0.0407983
0.040788
0.040785
0.0407836
0.0407833
0.0407866
0.0407929
0.0408046
0.0408196
0.0408381
0.0408576
0.0408772
0.0408955
0.0409121
0.0409268
0.0409395
0.0409507
0.0409606
0.0409697
0.040978
0.0409859
0.0409933
0.0410004
0.0410072
0.0410136
0.0410198
0.0410255
0.041031
0.0410361
0.0410408
0.0410453
0.0410495
0.0410535
0.0410572
0.0410608
0.0410642
0.0410674
0.0410706
0.0410738
0.0408492
0.04082
0.0408053
0.0407966
0.0407948
0.0407936
0.0407957
0.0408013
0.0408123
0.0408269
0.0408456
0.0408653
0.0408859
0.0409051
0.0409229
0.0409385
0.0409521
0.0409638
0.040974
0.0409831
0.0409913
0.0409989
0.0410061
0.041013
0.0410195
0.0410258
0.0410319
0.0410377
0.0410431
0.0410483
0.0410532
0.0410578
0.0410622
0.0410663
0.0410701
0.0410738
0.0410773
0.0410805
0.0410837
0.0410867
0.0410896
0.0410925
0.0408329
0.0408188
0.0408155
0.0408136
0.0408145
0.0408199
0.0408297
0.0408442
0.0408625
0.0408826
0.0409036
0.0409234
0.0409418
0.0409578
0.0409718
0.0409837
0.0409941
0.0410031
0.0410113
0.0410189
0.0410259
0.0410327
0.0410391
0.0410453
0.0410513
0.041057
0.0410625
0.0410677
0.0410726
0.0410772
0.0410816
0.0410857
0.0410896
0.0410933
0.0410968
0.0411001
0.0411032
0.0411062
0.041109
0.0411117
0.0411144
0.041117
0.0408429
0.0408401
0.0408396
0.0408458
0.0408549
0.0408703
0.0408882
0.0409085
0.0409294
0.0409493
0.0409677
0.0409838
0.0409979
0.0410097
0.04102
0.0410288
0.0410368
0.041044
0.0410509
0.0410574
0.0410636
0.0410697
0.0410756
0.0410812
0.0410866
0.0410917
0.0410966
0.0411012
0.0411055
0.0411097
0.0411135
0.0411172
0.0411207
0.041124
0.0411272
0.0411302
0.041133
0.0411357
0.0411383
0.0411408
0.0411432
0.0411456
0.0408684
0.0408748
0.0408841
0.0409006
0.0409187
0.0409396
0.0409604
0.0409805
0.0409988
0.0410147
0.0410285
0.0410401
0.0410501
0.0410586
0.0410662
0.0410731
0.0410796
0.0410858
0.0410918
0.0410976
0.0411033
0.0411088
0.0411142
0.0411193
0.0411241
0.0411287
0.0411331
0.0411372
0.0411411
0.0411448
0.0411483
0.0411517
0.0411549
0.0411579
0.0411608
0.0411635
0.0411661
0.0411686
0.041171
0.0411733
0.0411755
0.0411777
0.040915
0.0409327
0.0409519
0.0409736
0.0409947
0.0410145
0.0410322
0.0410474
0.0410605
0.0410715
0.041081
0.0410893
0.0410967
0.0411035
0.04111
0.0411162
0.0411222
0.041128
0.0411337
0.0411392
0.0411445
0.0411495
0.0411544
0.0411589
0.0411633
0.0411674
0.0411713
0.041175
0.0411785
0.0411818
0.041185
0.041188
0.0411909
0.0411937
0.0411963
0.0411988
0.0412012
0.0412034
0.0412056
0.0412077
0.0412097
0.0412118
0.0409838
0.0410062
0.0410279
0.0410475
0.0410649
0.0410796
0.0410922
0.0411028
0.0411119
0.04112
0.0411273
0.0411342
0.0411406
0.0411469
0.0411529
0.0411587
0.0411643
0.0411697
0.0411748
0.0411797
0.0411843
0.0411888
0.0411929
0.0411969
0.0412007
0.0412043
0.0412078
0.0412111
0.0412143
0.0412174
0.0412203
0.0412231
0.0412258
0.0412284
0.0412309
0.0412333
0.0412356
0.0412378
0.0412399
0.0412419
0.0412439
0.0412459
0.0410559
0.0410765
0.0410946
0.0411095
0.0411221
0.0411326
0.0411417
0.0411495
0.0411566
0.0411632
0.0411693
0.0411753
0.041181
0.0411865
0.0411918
0.041197
0.0412019
0.0412067
0.0412113
0.0412156
0.0412199
0.0412239
0.0412278
0.0412316
0.0412353
0.0412388
0.0412423
0.0412456
0.0412488
0.0412519
0.0412549
0.0412578
0.0412605
0.0412632
0.0412657
0.0412681
0.0412705
0.0412727
0.0412749
0.0412769
0.041279
0.041281
0.0411187
0.0411345
0.0411476
0.0411584
0.0411675
0.0411752
0.041182
0.0411883
0.041194
0.0411996
0.0412049
0.0412101
0.0412152
0.0412202
0.0412252
0.0412301
0.0412349
0.0412396
0.0412442
0.0412487
0.0412531
0.0412574
0.0412616
0.0412656
0.0412696
0.0412733
0.041277
0.0412805
0.0412838
0.041287
0.04129
0.0412929
0.0412957
0.0412983
0.0413008
0.0413031
0.0413054
0.0413075
0.0413096
0.0413115
0.0413134
0.0413153
0.0411666
0.0411779
0.0411871
0.0411947
0.0412013
0.0412073
0.0412129
0.0412183
0.0412236
0.0412289
0.0412342
0.0412395
0.0412449
0.0412501
0.0412554
0.0412606
0.0412657
0.0412708
0.0412757
0.0412805
0.0412851
0.0412895
0.0412938
0.0412979
0.0413017
0.0413054
0.0413089
0.0413122
0.0413153
0.0413182
0.041321
0.0413236
0.041326
0.0413284
0.0413305
0.0413326
0.0413346
0.0413364
0.0413381
0.0413398
0.0413414
0.041343
0.0411986
0.041207
0.0412142
0.0412207
0.0412267
0.0412325
0.0412382
0.0412438
0.0412494
0.041255
0.0412606
0.0412662
0.0412716
0.041277
0.0412824
0.0412876
0.0412926
0.0412975
0.0413023
0.0413069
0.0413112
0.0413154
0.0413194
0.0413231
0.0413267
0.0413301
0.0413332
0.0413362
0.0413391
0.0413418
0.0413443
0.0413467
0.041349
0.0413511
0.0413531
0.041355
0.0413569
0.0413586
0.0413602
0.0413618
0.0413633
0.0413649
0.0412179
0.0412246
0.0412313
0.041238
0.0412448
0.0412517
0.0412585
0.0412653
0.0412719
0.0412782
0.0412843
0.0412901
0.0412957
0.0413009
0.041306
0.0413108
0.0413154
0.0413197
0.0413239
0.0413278
0.0413316
0.0413352
0.0413386
0.0413419
0.041345
0.0413479
0.0413508
0.0413535
0.0413561
0.0413585
0.0413609
0.0413631
0.0413653
0.0413673
0.0413693
0.0413712
0.041373
0.0413747
0.0413763
0.0413779
0.0413795
0.041381
0.0412281
0.0412347
0.041242
0.04125
0.0412585
0.0412671
0.0412756
0.0412837
0.0412913
0.0412983
0.0413046
0.0413104
0.0413157
0.0413205
0.041325
0.041329
0.0413328
0.0413364
0.0413398
0.041343
0.041346
0.041349
0.0413518
0.0413546
0.0413573
0.0413599
0.0413624
0.0413648
0.0413672
0.0413695
0.0413718
0.041374
0.0413761
0.0413781
0.0413801
0.041382
0.0413838
0.0413856
0.0413873
0.0413889
0.0413906
0.0413922
0.0412374
0.0412458
0.0412549
0.0412644
0.0412738
0.041283
0.0412915
0.0412994
0.0413065
0.0413129
0.0413186
0.0413237
0.0413283
0.0413325
0.0413364
0.04134
0.0413434
0.0413466
0.0413497
0.0413527
0.0413556
0.0413585
0.0413612
0.041364
0.0413666
0.0413692
0.0413718
0.0413743
0.0413767
0.0413791
0.0413814
0.0413837
0.0413858
0.0413879
0.0413899
0.0413919
0.0413938
0.0413956
0.0413973
0.041399
0.0414006
0.0414023
0.0412469
0.0412567