/*--------------------------------*- C++ -*----------------------------------*\
| =========                 |                                                 |
| \\      /  F ield         | OpenFOAM: The Open Source CFD Toolbox           |
|  \\    /   O peration     | Version:  2412                                  |
|   \\  /    A nd           | Website:  www.openfoam.com                      |
|    \\/     M anipulation  |                                                 |
\*---------------------------------------------------------------------------*/
FoamFile
{
    version     2.0;
    format      ascii;
    arch        "LSB;label=32;scalar=64";
    class       volScalarField;
    location    "0.103";
    object      T;
}
// * * * * * * * * * * * * * * * * * * * * * * * * * * * * * * * * * * * * * //

dimensions      [0 0 0 1 0 0 0];

internalField   nonuniform List<scalar> 
9816
(
227.165
227.175
227.182
227.185
227.187
227.186
227.183
227.178
227.171
227.163
227.152
227.14
227.126
227.111
227.094
227.076
227.057
227.035
227.014
226.989
226.963
226.934
226.901
226.866
226.83
226.795
226.764
226.741
226.729
226.727
226.736
226.777
226.862
227.008
227.207
227.462
227.749
228.07
228.398
228.747
229.079
229.392
225.566
225.544
225.521
225.497
225.473
225.449
225.423
225.399
225.376
225.352
225.329
225.307
225.286
225.263
225.242
225.218
225.193
225.163
225.129
225.091
225.053
225.016
224.986
224.967
224.961
224.961
224.99
225.069
225.227
225.453
225.744
226.069
226.419
226.762
227.094
227.39
227.651
227.858
228.013
228.104
228.143
228.118
224.825
224.806
224.788
224.77
224.752
224.734
224.719
224.702
224.688
224.675
224.662
224.648
224.635
224.619
224.602
224.582
224.56
224.538
224.519
224.506
224.501
224.503
224.514
224.549
224.618
224.735
224.902
225.124
225.393
225.706
226.046
226.395
226.719
226.992
227.216
227.375
227.44
227.465
227.487
227.494
227.481
227.442
224.377
224.362
224.35
224.336
224.324
224.312
224.301
224.29
224.28
224.27
224.26
224.248
224.234
224.218
224.2
224.182
224.166
224.156
224.151
224.152
224.16
224.184
224.233
224.322
224.462
224.661
224.919
225.23
225.575
225.93
226.27
226.564
226.771
226.921
227.029
227.068
227.06
227.049
227.042
227.028
227.003
226.961
224.077
224.067
224.057
224.047
224.038
224.029
224.021
224.013
224.004
223.995
223.985
223.973
223.959
223.944
223.93
223.918
223.911
223.909
223.91
223.918
223.938
223.984
224.065
224.196
224.384
224.638
224.947
225.297
225.657
225.995
226.274
226.497
226.642
226.689
226.709
226.734
226.751
226.751
226.738
226.709
226.669
226.619
223.872
223.863
223.855
223.847
223.84
223.833
223.827
223.821
223.815
223.808
223.799
223.788
223.776
223.764
223.755
223.748
223.746
223.746
223.752
223.766
223.801
223.863
223.97
224.128
224.35
224.629
224.956
225.307
225.649
225.948
226.189
226.349
226.416
226.455
226.49
226.506
226.508
226.494
226.478
226.461
226.438
226.407
223.709
223.703
223.698
223.694
223.69
223.686
223.682
223.678
223.672
223.665
223.657
223.647
223.637
223.628
223.622
223.62
223.62
223.624
223.634
223.658
223.705
223.786
223.911
224.093
224.33
224.621
224.946
225.281
225.589
225.853
226.05
226.162
226.221
226.268
226.293
226.297
226.288
226.278
226.275
226.269
226.258
226.237
223.595
223.591
223.587
223.584
223.581
223.578
223.574
223.571
223.566
223.56
223.552
223.545
223.538
223.533
223.531
223.531
223.534
223.541
223.559
223.594
223.656
223.754
223.898
224.093
224.34
224.627
224.937
225.244
225.522
225.752
225.91
226.006
226.073
226.108
226.113
226.107
226.108
226.113
226.116
226.115
226.106
226.083
223.508
223.505
223.503
223.501
223.499
223.498
223.495
223.492
223.487
223.482
223.477
223.471
223.468
223.466
223.465
223.467
223.472
223.484
223.51
223.556
223.631
223.745
223.903
224.11
224.36
224.643
224.937
225.221
225.47
225.664
225.805
225.9
225.941
225.949
225.962
225.977
225.987
225.992
225.988
225.977
225.961
225.942
223.436
223.434
223.434
223.432
223.431
223.43
223.427
223.424
223.421
223.416
223.412
223.409
223.407
223.406
223.407
223.41
223.418
223.436
223.468
223.522
223.607
223.73
223.896
224.108
224.357
224.632
224.912
225.177
225.405
225.579
225.706
225.79
225.824
225.831
225.843
225.858
225.87
225.874
225.871
225.861
225.848
225.833
223.38
223.379
223.379
223.378
223.377
223.375
223.373
223.37
223.367
223.364
223.361
223.359
223.358
223.358
223.36
223.364
223.374
223.394
223.43
223.487
223.575
223.698
223.863
224.067
224.306
224.565
224.828
225.078
225.297
225.474
225.6
225.687
225.74
225.757
225.759
225.768
225.778
225.787
225.789
225.785
225.775
225.762
223.327
223.327
223.327
223.326
223.326
223.325
223.323
223.321
223.32
223.318
223.317
223.317
223.317
223.318
223.32
223.325
223.336
223.356
223.39
223.443
223.524
223.637
223.785
223.97
224.187
224.426
224.674
224.915
225.135
225.322
225.468
225.571
225.64
225.683
225.701
225.702
225.705
225.712
225.718
225.72
225.717
225.71
223.286
223.287
223.288
223.288
223.289
223.289
223.289
223.288
223.287
223.286
223.284
223.284
223.284
223.284
223.286
223.29
223.298
223.314
223.343
223.387
223.455
223.55
223.677
223.838
224.03
224.247
224.479
224.713
224.938
225.137
225.306
225.436
225.532
225.593
225.624
225.643
225.657
225.662
225.661
225.659
225.659
225.659
223.258
223.26
223.261
223.262
223.263
223.263
223.263
223.262
223.262
223.261
223.261
223.26
223.26
223.261
223.262
223.266
223.272
223.284
223.307
223.341
223.396
223.472
223.578
223.712
223.879
224.071
224.285
224.509
224.734
224.945
225.134
225.292
225.416
225.505
225.559
225.592
225.615
225.626
225.625
225.623
225.625
225.629
223.24
223.241
223.243
223.244
223.244
223.245
223.245
223.244
223.244
223.243
223.243
223.242
223.242
223.243
223.245
223.248
223.253
223.264
223.28
223.308
223.351
223.413
223.499
223.612
223.754
223.924
224.117
224.329
224.548
224.765
224.967
225.147
225.297
225.416
225.5
225.551
225.584
225.607
225.617
225.616
225.615
225.62
223.227
223.229
223.231
223.232
223.234
223.235
223.236
223.237
223.237
223.237
223.237
223.237
223.238
223.238
223.24
223.243
223.247
223.255
223.269
223.292
223.327
223.378
223.45
223.546
223.668
223.818
223.992
224.188
224.396
224.61
224.818
225.012
225.183
225.326
225.439
225.517
225.569
225.606
225.624
225.626
225.626
225.634
223.221
223.224
223.226
223.228
223.23
223.231
223.232
223.232
223.233
223.233
223.233
223.233
223.234
223.234
223.236
223.239
223.244
223.251
223.262
223.282
223.311
223.354
223.414
223.497
223.602
223.733
223.887
224.065
224.259
224.463
224.669
224.87
225.055
225.218
225.357
225.466
225.544
225.598
225.636
225.655
225.657
225.661
223.222
223.224
223.226
223.228
223.23
223.232
223.233
223.234
223.234
223.235
223.235
223.235
223.236
223.237
223.238
223.241
223.245
223.252
223.261
223.277
223.301
223.337
223.387
223.455
223.543
223.654
223.787
223.943
224.117
224.305
224.502
224.7
224.892
225.07
225.231
225.367
225.48
225.567
225.626
225.666
225.696
225.711
223.22
223.222
223.224
223.226
223.228
223.23
223.231
223.232
223.233
223.234
223.234
223.235
223.235
223.236
223.238
223.241
223.245
223.25
223.258
223.27
223.289
223.316
223.355
223.408
223.477
223.565
223.674
223.802
223.95
224.114
224.292
224.478
224.666
224.852
225.028
225.189
225.33
225.449
225.546
225.62
225.674
225.718
223.22
223.222
223.225
223.227
223.229
223.231
223.232
223.233
223.234
223.235
223.236
223.236
223.237
223.237
223.239
223.241
223.244
223.248
223.254
223.262
223.275
223.294
223.321
223.358
223.408
223.471
223.552
223.65
223.766
223.898
224.048
224.212
224.386
224.566
224.747
224.923
225.089
225.241
225.375
225.489
225.584
225.66
223.226
223.229
223.231
223.233
223.236
223.237
223.239
223.24
223.241
223.241
223.241
223.242
223.242
223.242
223.243
223.245
223.247
223.25
223.255
223.261
223.27
223.283
223.301
223.325
223.358
223.403
223.46
223.531
223.618
223.724
223.847
223.986
224.141
224.307
224.484
224.664
224.845
225.018
225.181
225.328
225.459
225.572
223.232
223.235
223.238
223.241
223.243
223.245
223.247
223.249
223.25
223.251
223.251
223.252
223.252
223.253
223.254
223.256
223.258
223.261
223.265
223.27
223.278
223.288
223.304
223.324
223.353
223.391
223.441
223.502
223.58
223.675
223.787
223.917
224.063
224.224
224.396
224.576
224.76
224.94
225.112
225.272
225.418
225.547
223.236
223.239
223.242
223.244
223.247
223.249
223.251
223.252
223.253
223.254
223.255
223.255
223.255
223.256
223.256
223.257
223.259
223.262
223.266
223.271
223.278
223.288
223.303
223.324
223.353
223.391
223.441
223.504
223.583
223.679
223.793
223.923
224.071
224.233
224.407
224.588
224.772
224.952
225.125
225.287
225.434
225.567
223.238
223.241
223.244
223.247
223.249
223.251
223.253
223.254
223.255
223.256
223.256
223.256
223.257
223.257
223.258
223.259
223.261
223.264
223.269
223.274
223.282
223.294
223.311
223.334
223.366
223.408
223.463
223.532
223.617
223.72
223.84
223.979
224.133
224.302
224.481
224.666
224.852
225.034
225.207
225.367
225.514
225.645
223.237
223.24
223.243
223.246
223.248
223.25
223.252
223.253
223.254
223.255
223.256
223.256
223.257
223.258
223.26
223.262
223.265
223.269
223.275
223.282
223.293
223.308
223.33
223.36
223.399
223.451
223.518
223.601
223.701
223.821
223.958
224.113
224.283
224.465
224.655
224.847
225.036
225.217
225.385
225.537
225.672
225.791
223.232
223.236
223.239
223.242
223.245
223.247
223.248
223.25
223.251
223.252
223.253
223.254
223.255
223.256
223.259
223.262
223.267
223.272
223.28
223.292
223.308
223.33
223.362
223.403
223.458
223.528
223.615
223.721
223.847
223.992
224.156
224.336
224.528
224.728
224.93
225.128
225.316
225.489
225.643
225.775
225.887
225.98
223.225
223.229
223.232
223.235
223.237
223.239
223.241
223.242
223.244
223.245
223.246
223.247
223.249
223.251
223.255
223.26
223.266
223.275
223.287
223.305
223.33
223.364
223.409
223.469
223.545
223.64
223.755
223.892
224.05
224.228
224.421
224.629
224.842
225.057
225.266
225.462
225.64
225.794
225.922
226.026
226.107
226.163
223.214
223.218
223.221
223.224
223.227
223.229
223.23
223.232
223.233
223.234
223.236
223.238
223.241
223.245
223.25
223.257
223.267
223.28
223.299
223.326
223.363
223.412
223.478
223.561
223.665
223.791
223.94
224.112
224.305
224.514
224.737
224.964
225.191
225.409
225.611
225.79
225.942
226.062
226.156
226.224
226.26
226.282
223.202
223.206
223.209
223.212
223.214
223.216
223.218
223.219
223.221
223.223
223.225
223.228
223.232
223.238
223.246
223.256
223.271
223.292
223.321
223.361
223.416
223.488
223.579
223.694
223.832
223.996
224.182
224.391
224.616
224.852
225.091
225.326
225.548
225.749
225.923
226.067
226.177
226.256
226.314
226.344
226.353
226.363
223.188
223.192
223.195
223.198
223.2
223.202
223.204
223.205
223.207
223.21
223.213
223.218
223.225
223.234
223.245
223.262
223.285
223.318
223.364
223.426
223.508
223.611
223.739
223.893
224.074
224.278
224.504
224.744
224.992
225.239
225.476
225.695
225.889
226.053
226.183
226.277
226.345
226.392
226.415
226.42
226.427
226.439
223.174
223.178
223.181
223.183
223.185
223.187
223.189
223.192
223.195
223.199
223.205
223.212
223.222
223.235
223.254
223.282
223.32
223.375
223.447
223.542
223.662
223.81
223.985
224.187
224.413
224.657
224.912
225.17
225.419
225.653
225.862
226.041
226.186
226.298
226.378
226.427
226.458
226.481
226.495
226.499
226.5
226.504
223.16
223.163
223.166
223.168
223.171
223.173
223.175
223.179
223.184
223.19
223.199
223.209
223.225
223.246
223.279
223.324
223.388
223.473
223.585
223.724
223.895
224.096
224.324
224.574
224.839
225.108
225.373
225.622
225.847
226.04
226.199
226.321
226.409
226.472
226.513
226.53
226.539
226.55
226.561
226.569
226.573
226.574
223.148
223.151
223.154
223.156
223.158
223.161
223.164
223.169
223.176
223.184
223.195
223.212
223.235
223.271
223.322
223.394
223.49
223.617
223.775
223.969
224.195
224.45
224.724
225.01
225.294
225.566
225.812
226.027
226.204
226.343
226.443
226.508
226.555
226.586
226.598
226.601
226.607
226.615
226.623
226.63
226.633
226.634
223.137
223.139
223.141
223.143
223.146
223.149
223.153
223.16
223.168
223.179
223.196
223.22
223.257
223.309
223.385
223.487
223.623
223.795
224.006
224.251
224.528
224.824
225.129
225.428
225.709
225.957
226.166
226.333
226.457
226.538
226.591
226.63
226.65
226.655
226.658
226.665
226.672
226.68
226.687
226.69
226.69
226.688
223.127
223.129
223.131
223.133
223.136
223.14
223.146
223.154
223.164
223.18
223.202
223.237
223.288
223.362
223.464
223.601
223.777
223.995
224.252
224.542
224.855
225.177
225.492
225.784
226.041
226.254
226.417
226.534
226.617
226.667
226.686
226.698
226.712
226.724
226.733
226.737
226.738
226.738
226.738
226.739
226.741
226.743
223.12
223.121
223.123
223.125
223.129
223.134
223.141
223.15
223.164
223.184
223.216
223.263
223.331
223.429
223.561
223.734
223.951
224.21
224.506
224.828
225.163
225.493
225.801
226.072
226.295
226.468
226.595
226.675
226.717
226.746
226.768
226.78
226.784
226.786
226.789
226.793
226.798
226.802
226.806
226.808
226.808
226.805
223.113
223.115
223.116
223.119
223.123
223.129
223.137
223.15
223.168
223.195
223.238
223.3
223.391
223.515
223.681
223.892
224.148
224.444
224.772
225.115
225.458
225.781
226.069
226.309
226.498
226.631
226.722
226.783
226.814
226.823
226.833
226.845
226.856
226.864
226.868
226.868
226.868
226.867
226.867
226.867
226.867
226.867
223.107
223.108
223.11
223.113
223.119
223.126
223.136
223.152
223.177
223.215
223.273
223.357
223.474
223.633
223.836
224.088
224.383
224.713
225.063
225.416
225.753
226.057
226.314
226.521
226.671
226.769
226.838
226.882
226.899
226.903
226.912
226.921
226.932
226.94
226.944
226.945
226.943
226.939
226.936
226.933
226.931
226.929
223.102
223.103
223.106
223.11
223.116
223.125
223.14
223.162
223.197
223.251
223.331
223.444
223.598
223.798
224.047
224.342
224.676
225.032
225.395
225.744
226.062
226.333
226.551
226.716
226.833
226.902
226.941
226.972
226.993
227.003
227.005
227.008
227.01
227.013
227.016
227.019
227.021
227.02
227.017
227.01
227.002
226.992
223.097
223.099
223.103
223.108
223.116
223.129
223.151
223.184
223.237
223.315
223.427
223.58
223.782
224.034
224.335
224.675
225.041
225.414
225.775
226.103
226.385
226.614
226.784
226.901
226.983
227.036
227.06
227.071
227.081
227.09
227.098
227.103
227.105
227.105
227.102
227.098
227.094
227.089
227.082
227.073
227.062
227.048
223.092
223.095
223.099
223.107
223.119
223.141
223.174
223.227
223.306
223.42
223.578
223.787
224.049
224.361
224.715
225.095
225.481
225.853
226.19
226.478
226.708
226.884
227.006
227.077
227.123
227.158
227.177
227.183
227.187
227.187
227.188
227.19
227.192
227.192
227.189
227.183
227.173
227.159
227.142
227.123
227.102
227.08
223.085
223.089
223.097
223.11
223.131
223.165
223.22
223.303
223.423
223.591
223.812
224.09
224.421
224.794
225.194
225.597
225.981
226.325
226.616
226.844
227.008
227.124
227.204
227.244
227.261
227.274
227.284
227.293
227.297
227.297
227.294
227.288
227.281
227.271
227.259
227.243
227.226
227.206
227.185
227.161
227.137
227.111
223.077
223.084
223.098
223.12
223.156
223.215
223.303
223.434
223.615
223.854
224.154
224.509
224.909
225.332
225.755
226.151
226.5
226.79
227.014
227.169
227.267
227.337
227.379
227.395
227.399
227.402
227.404
227.407
227.408
227.407
227.4
227.386
227.367
227.344
227.317
227.289
227.261
227.233
227.207
227.182
227.158
227.133
223.069
223.083
223.108
223.148
223.212
223.31
223.453
223.652
223.914
224.241
224.626
225.056
225.506
225.95
226.36
226.715
226.997
227.211
227.363
227.447
227.488
227.521
227.545
227.555
227.557
227.553
227.544
227.535
227.523
227.507
227.487
227.463
227.434
227.402
227.368
227.333
227.299
227.266
227.234
227.205
227.177
227.151
223.067
223.095
223.14
223.213
223.325
223.486
223.708
223.999
224.359
224.779
225.244
225.723
226.19
226.611
226.97
227.25
227.449
227.581
227.668
227.709
227.725
227.73
227.731
227.732
227.73
227.722
227.705
227.681
227.649
227.611
227.571
227.529
227.488
227.448
227.411
227.376
227.343
227.312
227.283
227.255
227.229
227.203
223.082
223.136
223.221
223.35
223.537
223.79
224.119
224.518
224.983
225.483
225.997
226.485
226.921
227.281
227.56
227.747
227.861
227.934
227.971
227.983
227.983
227.979
227.971
227.959
227.938
227.909
227.869
227.823
227.771
227.717
227.664
227.613
227.565
227.522
227.483
227.447
227.415
227.386
227.359
227.334
227.309
227.284
223.133
223.233
223.386
223.602
223.896
224.27
224.722
225.235
225.784
226.333
226.846
227.295
227.656
227.922
228.097
228.209
228.267
228.29
228.294
228.292
228.287
228.275
228.252
228.216
228.167
228.107
228.04
227.97
227.902
227.838
227.779
227.727
227.68
227.639
227.602
227.569
227.539
227.511
227.484
227.459
227.434
227.409
223.243
223.419
223.67
224.008
224.435
224.946
225.517
226.119
226.707
227.246
227.707
228.066
228.313
228.478
228.58
228.623
228.637
228.635
228.632
228.623
228.606
228.572
228.521
228.453
228.373
228.285
228.199
228.118
228.044
227.98
227.925
227.877
227.836
227.799
227.766
227.735
227.706
227.678
227.651
227.624
227.597
227.57
223.443
223.726
224.107
224.588
225.158
225.789
226.444
227.073
227.636
228.099
228.455
228.685
228.822
228.906
228.948
228.96
228.956
228.943
228.923
228.889
228.837
228.77
228.689
228.6
228.507
228.417
228.332
228.255
228.187
228.128
228.076
228.032
227.993
227.958
227.927
227.898
227.87
227.843
227.818
227.792
227.767
227.741
223.756
224.173
224.699
225.319
226.004
226.704
227.372
227.95
228.405
228.749
228.98
229.081
229.128
229.157
229.177
229.183
229.173
229.14
229.082
229.004
228.91
228.81
228.712
228.621
228.539
228.466
228.4
228.339
228.284
228.233
228.186
228.142
228.101
228.063
228.028
227.995
227.965
227.937
227.91
227.886
227.862
227.839
224.214
224.775
225.435
226.157
226.888
227.57
228.158
228.621
228.922
229.108
229.232
229.283
229.293
229.289
229.278
229.26
229.228
229.173
229.1
229.009
228.908
228.802
228.7
228.605
228.52
228.446
228.383
228.328
228.28
228.238
228.198
228.161
228.126
228.092
228.058
228.026
227.995
227.965
227.936
227.908
227.882
227.855
224.826
225.512
226.258
227.008
227.696
228.278
228.728
229.005
229.156
229.261
229.321
229.331
229.33
229.312
229.288
229.256
229.207
229.143
229.06
228.964
228.859
228.754
228.653
228.561
228.48
228.409
228.348
228.296
228.251
228.211
228.174
228.141
228.109
228.078
228.047
228.017
227.988
227.959
227.93
227.903
227.876
227.849
225.578
226.335
227.091
227.776
228.331
228.759
229.05
229.174
229.228
229.273
229.309
229.325
229.323
229.302
229.263
229.207
229.132
229.042
228.944
228.842
228.743
228.649
228.561
228.481
228.41
228.345
228.287
228.236
228.189
228.146
228.107
228.071
228.037
228.005
227.974
227.946
227.918
227.892
227.867
227.842
227.818
227.794
226.412
227.157
227.821
228.358
228.762
229.013
229.133
229.205
229.249
229.271
229.278
229.268
229.246
229.209
229.151
229.075
228.984
228.885
228.781
228.679
228.582
228.493
228.412
228.339
228.274
228.216
228.163
228.115
228.072
228.031
227.993
227.958
227.925
227.893
227.863
227.835
227.808
227.783
227.758
227.735
227.711
227.688
227.221
227.854
228.366
228.728
228.942
229.072
229.148
229.179
229.186
229.182
229.168
229.143
229.101
229.041
228.961
228.868
228.763
228.656
228.55
228.452
228.361
228.28
228.209
228.146
228.089
228.039
227.993
227.95
227.91
227.872
227.835
227.8
227.767
227.735
227.704
227.675
227.647
227.621
227.596
227.571
227.548
227.524
227.873
228.338
228.662
228.856
228.965
229.031
229.053
229.057
229.047
229.027
228.992
228.939
228.866
228.776
228.672
228.562
228.452
228.347
228.251
228.165
228.089
228.022
227.962
227.909
227.861
227.816
227.773
227.733
227.694
227.657
227.621
227.586
227.553
227.522
227.492
227.463
227.436
227.411
227.386
227.363
227.341
227.319
228.272
228.553
228.72
228.818
228.863
228.878
228.875
228.861
228.835
228.785
228.714
228.621
228.514
228.4
228.285
228.175
228.074
227.984
227.905
227.835
227.774
227.719
227.669
227.622
227.578
227.537
227.496
227.458
227.421
227.385
227.351
227.319
227.288
227.259
227.232
227.206
227.181
227.158
227.136
227.115
227.095
227.075
228.404
228.538
228.616
228.643
228.653
228.645
228.623
228.577
228.509
228.415
228.306
228.185
228.065
227.949
227.843
227.748
227.666
227.593
227.53
227.474
227.423
227.376
227.332
227.289
227.249
227.21
227.172
227.136
227.102
227.069
227.038
227.009
226.981
226.955
226.931
226.908
226.886
226.865
226.845
226.826
226.808
226.789
228.319
228.367
228.387
228.382
228.361
228.32
228.251
228.159
228.047
227.925
227.8
227.68
227.57
227.471
227.386
227.311
227.247
227.189
227.138
227.091
227.046
227.004
226.963
226.924
226.887
226.851
226.816
226.784
226.752
226.723
226.695
226.669
226.644
226.621
226.599
226.578
226.558
226.539
226.521
226.504
226.487
226.47
228.086
228.085
228.067
228.029
227.957
227.863
227.749
227.625
227.499
227.377
227.265
227.165
227.078
227.003
226.937
226.879
226.828
226.78
226.735
226.693
226.652
226.613
226.576
226.539
226.505
226.472
226.441
226.411
226.383
226.357
226.332
226.308
226.286
226.265
226.244
226.225
226.207
226.19
226.173
226.157
226.141
226.126
227.759
227.719
227.641
227.544
227.424
227.298
227.17
227.048
226.937
226.838
226.752
226.677
226.612
226.555
226.503
226.455
226.41
226.368
226.327
226.287
226.25
226.213
226.179
226.145
226.114
226.084
226.056
226.029
226.004
225.98
225.957
225.936
225.915
225.895
225.877
225.859
225.842
225.826
225.81
225.795
225.781
225.766
227.33
227.224
227.097
226.965
226.833
226.71
226.599
226.5
226.416
226.342
226.279
226.223
226.172
226.125
226.081
226.038
225.998
225.958
225.92
225.883
225.848
225.815
225.783
225.752
225.724
225.696
225.67
225.646
225.622
225.599
225.578
225.557
225.538
225.519
225.501
225.485
225.468
225.453
225.438
225.424
225.41
225.396
226.789
226.646
226.507
226.38
226.267
226.169
226.086
226.014
225.952
225.898
225.848
225.802
225.758
225.716
225.675
225.635
225.596
225.558
225.522
225.487
225.454
225.422
225.392
225.363
225.336
225.31
225.285
225.261
225.239
225.217
225.197
225.177
225.158
225.14
225.123
225.107
225.092
225.077
225.063
225.049
225.036
225.023
226.213
226.078
225.962
225.863
225.78
225.71
225.649
225.595
225.545
225.498
225.453
225.41
225.367
225.325
225.284
225.245
225.207
225.17
225.135
225.102
225.07
225.04
225.012
224.984
224.958
224.934
224.91
224.888
224.866
224.846
224.826
224.808
224.79
224.773
224.757
224.741
224.727
224.713
224.699
224.686
224.674
224.661
225.702
225.598
225.513
225.442
225.38
225.325
225.274
225.225
225.177
225.13
225.085
225.04
224.996
224.954
224.914
224.876
224.839
224.805
224.772
224.741
224.712
224.684
224.657
224.631
224.607
224.584
224.561
224.54
224.52
224.5
224.482
224.464
224.447
224.43
224.415
224.399
224.385
224.371
224.358
224.345
224.333
224.32
225.296
225.22
225.154
225.095
225.04
224.988
224.937
224.886
224.837
224.789
224.743
224.698
224.656
224.616
224.577
224.541
224.507
224.475
224.444
224.415
224.386
224.36
224.334
224.309
224.285
224.262
224.24
224.219
224.199
224.18
224.161
224.143
224.126
224.109
224.093
224.078
224.063
224.049
224.036
224.023
224.01
223.998
224.975
224.911
224.852
224.796
224.741
224.686
224.633
224.581
224.531
224.483
224.437
224.393
224.352
224.313
224.276
224.241
224.207
224.175
224.145
224.115
224.087
224.06
224.034
224.009
223.985
223.963
223.94
223.919
223.899
223.88
223.861
223.843
223.826
223.81
223.794
223.779
223.765
223.751
223.738
223.725
223.713
223.701
224.705
224.643
224.582
224.524
224.467
224.411
224.358
224.307
224.258
224.211
224.166
224.124
224.083
224.044
224.007
223.971
223.937
223.904
223.872
223.842
223.813
223.785
223.758
223.733
223.708
223.685
223.663
223.642
223.622
223.602
223.584
223.566
223.55
223.534
223.519
223.504
223.49
223.477
223.465
223.453
223.441
223.429
224.463
224.396
224.333
224.273
224.216
224.162
224.11
224.061
224.014
223.968
223.924
223.882
223.84
223.8
223.762
223.724
223.688
223.654
223.621
223.589
223.559
223.53
223.503
223.477
223.452
223.428
223.406
223.385
223.365
223.346
223.328
223.311
223.295
223.28
223.266
223.252
223.239
223.227
223.215
223.204
223.193
223.182
224.246
224.179
224.115
224.055
223.997
223.942
223.89
223.84
223.791
223.744
223.698
223.653
223.61
223.568
223.528
223.49
223.453
223.418
223.384
223.353
223.323
223.294
223.267
223.242
223.218
223.195
223.174
223.154
223.135
223.117
223.1
223.084
223.069
223.055
223.042
223.029
223.017
223.006
222.995
222.985
222.975
222.965
224.048
223.98
223.915
223.852
223.793
223.736
223.681
223.628
223.577
223.528
223.48
223.434
223.39
223.348
223.308
223.27
223.234
223.2
223.167
223.137
223.108
223.081
223.056
223.032
223.009
222.988
222.967
222.949
222.931
222.914
222.898
222.883
222.869
222.856
222.843
222.831
222.82
222.809
222.799
222.79
222.78
222.771
223.861
223.789
223.72
223.655
223.593
223.533
223.477
223.423
223.371
223.322
223.275
223.23
223.187
223.146
223.108
223.071
223.037
223.004
222.973
222.944
222.917
222.891
222.867
222.844
222.822
222.801
222.782
222.764
222.747
222.73
222.715
222.701
222.687
222.674
222.662
222.65
222.639
222.629
222.619
222.609
222.6
222.591
223.675
223.601
223.53
223.463
223.4
223.34
223.284
223.23
223.179
223.131
223.084
223.041
222.999
222.96
222.923
222.887
222.854
222.822
222.793
222.764
222.738
222.713
222.689
222.666
222.645
222.625
222.606
222.589
222.572
222.556
222.541
222.527
222.513
222.501
222.489
222.477
222.466
222.456
222.447
222.437
222.428
222.42
223.493
223.418
223.348
223.282
223.219
223.16
223.105
223.051
223.001
222.953
222.907
222.864
222.823
222.784
222.747
222.712
222.679
222.648
222.619
222.591
222.565
222.54
222.517
222.495
222.475
222.456
222.437
222.42
222.404
222.389
222.375
222.361
222.349
222.337
222.325
222.315
222.305
222.295
222.286
222.278
222.27
222.261
223.318
223.244
223.174
223.109
223.046
222.988
222.932
222.879
222.828
222.78
222.735
222.692
222.651
222.613
222.576
222.542
222.51
222.48
222.452
222.425
222.4
222.377
222.355
222.335
222.316
222.298
222.281
222.265
222.251
222.237
222.224
222.212
222.2
222.189
222.179
222.17
222.161
222.152
222.144
222.137
222.129
222.122
223.15
223.076
223.005
222.938
222.875
222.815
222.759
222.706
222.656
222.609
222.565
222.524
222.485
222.449
222.415
222.383
222.354
222.326
222.3
222.276
222.253
222.232
222.213
222.194
222.177
222.161
222.146
222.131
222.118
222.106
222.094
222.083
222.072
222.062
222.053
222.045
222.036
222.029
222.021
222.014
222.008
222.001
222.981
222.906
222.834
222.767
222.704
222.645
222.589
222.538
222.49
222.446
222.404
222.366
222.331
222.298
222.267
222.239
222.213
222.188
222.165
222.143
222.123
222.105
222.087
222.07
222.055
222.04
222.026
222.013
222.001
221.989
221.979
221.968
221.959
221.949
221.941
221.933
221.925
221.918
221.911
221.904
221.898
221.892
222.81
222.735
222.666
222.601
222.54
222.484
222.432
222.384
222.34
222.299
222.261
222.226
222.194
222.164
222.136
222.111
222.086
222.064
222.043
222.023
222.005
221.987
221.971
221.956
221.941
221.928
221.915
221.902
221.891
221.88
221.87
221.86
221.851
221.842
221.834
221.827
221.819
221.812
221.806
221.8
221.794
221.788
222.645
222.573
222.507
222.446
222.39
222.338
222.291
222.247
222.206
222.168
222.134
222.102
222.072
222.044
222.018
221.994
221.971
221.95
221.93
221.911
221.894
221.877
221.862
221.847
221.834
221.821
221.809
221.798
221.787
221.777
221.768
221.759
221.751
221.743
221.736
221.729
221.723
221.717
221.711
221.706
221.701
221.695
222.494
222.427
222.365
222.309
222.257
222.209
222.165
222.124
222.086
222.051
222.019
221.988
221.96
221.934
221.91
221.887
221.866
221.846
221.828
221.811
221.795
221.78
221.766
221.753
221.74
221.729
221.718
221.708
221.699
221.69
221.682
221.674
221.667
221.661
221.654
221.648
221.643
221.638
221.633
221.628
221.624
221.619
222.363
222.3
222.242
222.189
222.141
222.096
222.055
222.016
221.981
221.948
221.918
221.889
221.863
221.839
221.817
221.796
221.776
221.758
221.741
221.726
221.711
221.698
221.685
221.674
221.663
221.653
221.643
221.634
221.626
221.619
221.611
221.605
221.599
221.593
221.587
221.582
221.577
221.573
221.569
221.565
221.561
221.557
222.252
222.192
222.138
222.088
222.042
222
221.961
221.924
221.891
221.861
221.833
221.806
221.782
221.76
221.739
221.72
221.703
221.686
221.671
221.657
221.644
221.632
221.621
221.611
221.601
221.592
221.584
221.576
221.569
221.562
221.556
221.55
221.544
221.539
221.534
221.53
221.526
221.522
221.518
221.514
221.511
221.508
222.161
222.104
222.052
222.004
221.961
221.92
221.884
221.85
221.819
221.79
221.764
221.74
221.718
221.698
221.679
221.662
221.646
221.631
221.618
221.605
221.593
221.582
221.572
221.563
221.554
221.546
221.538
221.531
221.525
221.519
221.513
221.507
221.502
221.497
221.493
221.489
221.485
221.481
221.478
221.474
221.471
221.468
222.089
222.034
221.985
221.939
221.898
221.86
221.825
221.793
221.764
221.738
221.714
221.691
221.671
221.652
221.635
221.619
221.604
221.591
221.578
221.567
221.556
221.546
221.536
221.527
221.519
221.512
221.504
221.498
221.491
221.485
221.48
221.475
221.47
221.465
221.461
221.457
221.453
221.449
221.446
221.442
221.439
221.436
222.034
221.983
221.935
221.892
221.853
221.817
221.785
221.755
221.728
221.703
221.68
221.659
221.64
221.622
221.606
221.591
221.577
221.564
221.552
221.541
221.53
221.521
221.512
221.503
221.495
221.488
221.481
221.474
221.468
221.462
221.456
221.451
221.446
221.442
221.437
221.433
221.429
221.426
221.422
221.419
221.416
221.412
221.996
221.947
221.903
221.862
221.825
221.791
221.76
221.732
221.706
221.682
221.66
221.64
221.622
221.605
221.589
221.574
221.561
221.548
221.536
221.525
221.515
221.505
221.496
221.488
221.48
221.472
221.465
221.459
221.453
221.447
221.441
221.436
221.431
221.426
221.422
221.418
221.414
221.41
221.407
221.403
221.4
221.397
221.972
221.926
221.884
221.845
221.81
221.778
221.748
221.721
221.696
221.673
221.652
221.633
221.615
221.598
221.582
221.568
221.554
221.542
221.53
221.519
221.509
221.499
221.49
221.482
221.474
221.466
221.459
221.453
221.447
221.441
221.435
221.43
221.425
221.42
221.416
221.412
221.408
221.404
221.4
221.397
221.394
221.39
221.961
221.916
221.876
221.839
221.806
221.775
221.746
221.72
221.696
221.673
221.653
221.634
221.616
221.599
221.584
221.569
221.556
221.544
221.532
221.521
221.511
221.501
221.492
221.484
221.476
221.468
221.461
221.454
221.448
221.442
221.437
221.431
221.426