/*--------------------------------*- C++ -*----------------------------------*\
| =========                 |                                                 |
| \\      /  F ield         | OpenFOAM: The Open Source CFD Toolbox           |
|  \\    /   O peration     | Version:  2412                                  |
|   \\  /    A nd           | Website:  www.openfoam.com                      |
|    \\/     M anipulation  |                                                 |
\*---------------------------------------------------------------------------*/
FoamFile
{
    version     2.0;
    format      ascii;
    arch        "LSB;label=32;scalar=64";
    class       volScalarField;
    location    "0.009";
    object      p;
}
// * * * * * * * * * * * * * * * * * * * * * * * * * * * * * * * * * * * * * //

dimensions      [1 -1 -2 0 0 0 0];

internalField   nonuniform List<scalar> 
9859
(
2790
2790
2790
2790
2790
2790
2790
2790
2790
2790
2790
2790
2790
2790
2790
2790
2790
2790
2790
2790
2790
2790
2790
2790
2790
2790
2790
2790
2790
2790
2790
2790
2790
2790
2790
2790
2790
2790
2790
2790
2790
2790
2790
2790
2790
2790
2790
2790
2790
2790
2790
2790
2790
2790
2790
2790
2790
2790
2790
2790
2790
2790
2790
2790
2790
2790
2790
2790
2790
2790
2790
2790
2790
2790
2790
2790
2790
2790
2790
2790
2790
2790
2790
2790
2790
2790
2790
2790
2790
2790
2790
2790
2790
2790
2790
2790
2790
2790
2790
2790
2790
2790
2790
2790
2790
2790
2790
2790
2790
2790
2790
2790
2790
2790
2790
2790
2790
2790
2790
2790
2790
2790
2790
2790
2790
2790
2790
2790
2790
2790
2790
2790
2790
2790
2790
2790
2790
2790
2790
2790
2790
2790
2790
2790
2790
2790
2790
2790
2790
2789.99
2789.69
2787.68
2782.79
2776.76
2772.11
2769.82
2769.48
2772.47
2782.62
2793.82
2800.85
2803.92
2804.07
2800.28
2794.37
2790.67
2791.24
2792.49
2788.88
2783.61
2773.47
2767.08
2756.64
2759.94
2770.98
2778.41
2782.15
2785.46
2793.3
2793.09
2798.58
2790
2790
2790
2790
2790
2790
2790
2790
2790
2790
2790
2790
2790
2790
2790
2790
2790
2790
2790
2790
2790
2790
2790
2790
2790
2790
2790
2790
2790
2790
2790
2790
2790
2790
2790
2790
2790
2790
2790
2790
2790
2790
2790
2790
2790
2790
2790
2790
2790
2790
2790
2790
2790
2790
2790
2790
2790
2790
2790
2790
2790
2790
2790
2790
2790
2790
2790
2790
2790
2790
2790
2790
2790
2790
2790
2790
2790
2790
2790
2790
2790
2790
2790
2790
2790
2790
2790
2790
2789.99
2789.68
2787.64
2782.71
2776.64
2771.97
2769.67
2769.34
2772.32
2782.46
2793.67
2800.73
2803.82
2803.98
2800.15
2794.17
2790.41
2791.11
2792.49
2788.85
2783.02
2773.47
2766.34
2756.7
2760.14
2771.44
2777.9
2781.51
2784.76
2792.02
2791.49
2795.77
2790
2790
2790
2790
2790
2790
2790
2790
2790
2790
2790
2790
2790
2790
2790
2790
2790
2790
2790
2790
2790
2790
2790
2790
2790
2790
2790
2790
2790
2790
2790
2790
2790
2790
2790
2790
2790
2790
2790
2790
2790
2790
2790
2790
2790
2790
2790
2790
2790
2790
2790
2790
2790
2790
2790
2790
2790
2790
2790
2790
2790
2790
2790
2790
2790
2790
2790
2790
2790
2790
2790
2790
2790
2790
2790
2790
2790
2790
2790
2790
2790
2790
2790
2790
2790
2790
2790
2790
2789.99
2789.67
2787.61
2782.63
2776.52
2771.83
2769.52
2769.19
2772.16
2782.29
2793.51
2800.6
2803.72
2803.88
2800.01
2793.96
2790.13
2790.98
2792.47
2788.89
2782.27
2773.51
2765.77
2756.83
2760.53
2771.61
2777.4
2780.85
2784.04
2790.67
2789.82
2792.81
2790
2790
2790
2790
2790
2790
2790
2790
2790
2790
2790
2790
2790
2790
2790
2790
2790
2790
2790
2790
2790
2790
2790
2790
2790
2790
2790
2790
2790
2790
2790
2790
2790
2790
2790
2790
2790
2790
2790
2790
2790
2790
2790
2790
2790
2790
2790
2790
2790
2790
2790
2790
2790
2790
2790
2790
2790
2790
2790
2790
2790
2790
2790
2790
2790
2790
2790
2790
2790
2790
2790
2790
2790
2790
2790
2790
2790
2790
2790
2790
2790
2790
2790
2790
2790
2790
2790
2790
2789.99
2789.66
2787.57
2782.54
2776.39
2771.68
2769.36
2769.04
2771.99
2782.1
2793.34
2800.46
2803.6
2803.79
2799.86
2793.74
2789.85
2790.9
2792.43
2788.98
2781.62
2773.33
2765.23
2757.08
2761.21
2771.62
2776.89
2780.17
2783.3
2789.26
2788.06
2789.68
2757.6
2790
2790
2790
2790
2790
2790
2790
2790
2790
2790
2790
2790
2790
2790
2790
2790
2790
2790
2790
2790
2790
2790
2790
2790
2790
2790
2790
2790
2790
2790
2790
2790
2790
2790
2790
2790
2790
2790
2790
2790
2790
2790
2790
2790
2790
2790
2790
2790
2790
2790
2790
2790
2790
2790
2790
2790
2790
2790
2790
2790
2790
2790
2790
2790
2790
2790
2790
2790
2790
2790
2790
2790
2790
2790
2790
2790
2790
2790
2790
2790
2790
2790
2790
2790
2790
2790
2790
2790
2789.99
2789.66
2787.53
2782.45
2776.26
2771.52
2769.2
2768.87
2771.81
2781.9
2793.16
2800.31
2803.49
2803.68
2799.71
2793.5
2789.58
2790.72
2792.33
2789.11
2780.84
2773.21
2764.81
2757.52
2762.12
2771.4
2776.38
2779.48
2782.52
2787.76
2786.21
2786.41
2752.43
2790
2790
2790
2790
2790
2790
2790
2790
2790
2790
2790
2790
2790
2790
2790
2790
2790
2790
2790
2790
2790
2790
2790
2790
2790
2790
2790
2790
2790
2790
2790
2790
2790
2790
2790
2790
2790
2790
2790
2790
2790
2790
2790
2790
2790
2790
2790
2790
2790
2790
2790
2790
2790
2790
2790
2790
2790
2790
2790
2790
2790
2790
2790
2790
2790
2790
2790
2790
2790
2790
2790
2790
2790
2790
2790
2790
2790
2790
2790
2790
2790
2790
2790
2790
2790
2790
2790
2790
2789.99
2789.65
2787.49
2782.36
2776.12
2771.35
2769.02
2768.7
2771.62
2781.69
2792.97
2800.15
2803.36
2803.58
2799.55
2793.26
2789.33
2790.59
2792.2
2789.19
2780.09
2773.06
2764.34
2758
2763.01
2771.18
2775.88
2778.78
2781.69
2786.17
2784.27
2782.96
2747.24
2790
2790
2790
2790
2790
2790
2790
2790
2790
2790
2790
2790
2790
2790
2790
2790
2790
2790
2790
2790
2790
2790
2790
2790
2790
2790
2790
2790
2790
2790
2790
2790
2790
2790
2790
2790
2790
2790
2790
2790
2790
2790
2790
2790
2790
2790
2790
2790
2790
2790
2790
2790
2790
2790
2790
2790
2790
2790
2790
2790
2790
2790
2790
2790
2790
2790
2790
2790
2790
2790
2790
2790
2790
2790
2790
2790
2790
2790
2790
2790
2790
2790
2790
2790
2790
2790
2790
2790
2789.99
2789.64
2787.45
2782.27
2775.97
2771.18
2768.84
2768.52
2771.41
2781.46
2792.76
2799.98
2803.22
2803.47
2799.39
2793.02
2789.09
2790.44
2791.98
2788.85
2779.73
2772.84
2764.17
2758.83
2763.94
2770.93
2775.41
2778.08
2780.81
2784.48
2782.23
2779.4
2742.05
2790
2790
2790
2790
2790
2790
2790
2790
2790
2790
2790
2790
2790
2790
2790
2790
2790
2790
2790
2790
2790
2790
2790
2790
2790
2790
2790
2790
2790
2790
2790
2790
2790
2790
2790
2790
2790
2790
2790
2790
2790
2790
2790
2790
2790
2790
2790
2790
2790
2790
2790
2790
2790
2790
2790
2790
2790
2790
2790
2790
2790
2790
2790
2790
2790
2790
2790
2790
2790
2790
2790
2790
2790
2790
2790
2790
2790
2790
2790
2790
2790
2790
2790
2790
2790
2790
2790
2790
2789.99
2789.63
2787.41
2782.17
2775.83
2771
2768.64
2768.33
2771.2
2781.22
2792.53
2799.8
2803.08
2803.35
2799.22
2792.78
2788.86
2790.27
2791.73
2788.11
2779.68
2772.62
2764.04
2759.66
2764.49
2770.7
2774.97
2777.37
2779.86
2782.7
2780.09
2775.69
2736.85
2790
2790
2790
2790
2790
2790
2790
2790
2790
2790
2790
2790
2790
2790
2790
2790
2790
2790
2790
2790
2790
2790
2790
2790
2790
2790
2790
2790
2790
2790
2790
2790
2790
2790
2790
2790
2790
2790
2790
2790
2790
2790
2790
2790
2790
2790
2790
2790
2790
2790
2790
2790
2790
2790
2790
2790
2790
2790
2790
2790
2790
2790
2790
2790
2790
2790
2790
2790
2790
2790
2790
2790
2790
2790
2790
2790
2790
2790
2790
2790
2790
2790
2790
2790
2790
2790
2790
2790
2789.99
2789.62
2787.37
2782.07
2775.67
2770.81
2768.44
2768.13
2770.97
2780.96
2792.29
2799.6
2802.92
2803.22
2799.04
2792.54
2788.66
2790.08
2791.38
2787.33
2779.63
2772.26
2764.19
2760.93
2764.97
2770.51
2774.53
2776.62
2778.85
2780.85
2777.87
2771.9
2731.66
2790
2790
2790
2790
2790
2790
2790
2790
2790
2790
2790
2790
2790
2790
2790
2790
2790
2790
2790
2790
2790
2790
2790
2790
2790
2790
2790
2790
2790
2790
2790
2790
2790
2790
2790
2790
2790
2790
2790
2790
2790
2790
2790
2790
2790
2790
2790
2790
2790
2790
2790
2790
2790
2790
2790
2790
2790
2790
2790
2790
2790
2790
2790
2790
2790
2790
2790
2790
2790
2790
2790
2790
2790
2790
2790
2790
2790
2790
2790
2790
2790
2790
2790
2790
2790
2790
2790
2790
2789.99
2789.62
2787.33
2781.97
2775.51
2770.61
2768.23
2767.92
2770.73
2780.68
2792.03
2799.38
2802.75
2803.08
2798.85
2792.32
2788.47
2789.85
2790.91
2786.64
2779.54
2772.12
2764.42
2761.82
2765.38
2770.38
2774.1
2775.84
2777.76
2778.91
2775.54
2767.98
2726.46
2790
2790
2790
2790
2790
2790
2790
2790
2790
2790
2790
2790
2790
2790
2790
2790
2790
2790
2790
2790
2790
2790
2790
2790
2790
2790
2790
2790
2790
2790
2790
2790
2790
2790
2790
2790
2790
2790
2790
2790
2790
2790
2790
2790
2790
2790
2790
2790
2790
2790
2790
2790
2790
2790
2790
2790
2790
2790
2790
2790
2790
2790
2790
2790
2790
2790
2790
2790
2790
2790
2790
2790
2790
2790
2790
2790
2790
2790
2790
2790
2790
2790
2790
2790
2790
2790
2790
2790
2789.99
2789.61
2787.29
2781.87
2775.35
2770.41
2768.01
2767.7
2770.48
2780.38
2791.76
2799.15
2802.57
2802.93
2798.65
2792.1
2788.3
2789.56
2790.33
2786.08
2779.56
2771.86
2764.98
2763.03
2765.74
2770.31
2773.64
2775.01
2776.58
2776.92
2773.09
2763.96
2721.25
2790
2790
2790
2790
2790
2790
2790
2790
2790
2790
2790
2790
2790
2790
2790
2790
2790
2790
2790
2790
2790
2790
2790
2790
2790
2790
2790
2790
2790
2790
2790
2790
2790
2790
2790
2790
2790
2790
2790
2790
2790
2790
2790
2790
2790
2790
2790
2790
2790
2790
2790
2790
2790
2790
2790
2790
2790
2790
2790
2790
2790
2790
2790
2790
2790
2790
2790
2790
2790
2790
2790
2790
2790
2790
2790
2790
2790
2790
2790
2790
2790
2790
2790
2790
2790
2790
2790
2790
2789.99
2789.6
2787.24
2781.77
2775.18
2770.19
2767.78
2767.46
2770.21
2780.06
2791.46
2798.9
2802.37
2802.77
2798.45
2791.89
2788.13
2789.22
2789.73
2785.51
2779.29
2772.1
2765.13
2763.64
2766.12
2770.27
2773.14
2774.13
2775.31
2774.84
2770.5
2759.83
2716.03
2790
2790
2790
2790
2790
2790
2790
2790
2790
2790
2790
2790
2790
2790
2790
2790
2790
2790
2790
2790
2790
2790
2790
2790
2790
2790
2790
2790
2790
2790
2790
2790
2790
2790
2790
2790
2790
2790
2790
2790
2790
2790
2790
2790
2790
2790
2790
2790
2790
2790
2790
2790
2790
2790
2790
2790
2790
2790
2790
2790
2790
2790
2790
2790
2790
2790
2790
2790
2790
2790
2790
2790
2790
2790
2790
2790
2790
2790
2790
2790
2790
2790
2790
2790
2790
2790
2790
2790
2789.99
2789.59
2787.2
2781.66
2775.01
2769.97
2767.53
2767.22
2769.92
2779.71
2791.13
2798.63
2802.15
2802.59
2798.24
2791.67
2787.94
2788.81
2789.15
2785.23
2779.39
2772.14
2766.09
2764.6
2766.49
2770.23
2772.59
2773.21
2773.98
2772.71
2767.78
2755.64
2710.83
2790
2790
2790
2790
2790
2790
2790
2790
2790
2790
2790
2790
2790
2790
2790
2790
2790
2790
2790
2790
2790
2790
2790
2790
2790
2790
2790
2790
2790
2790
2790
2790
2790
2790
2790
2790
2790
2790
2790
2790
2790
2790
2790
2790
2790
2790
2790
2790
2790
2790
2790
2790
2790
2790
2790
2790
2790
2790
2790
2790
2790
2790
2790
2790
2790
2790
2790
2790
2790
2790
2790
2790
2790
2790
2790
2790
2790
2790
2790
2790
2790
2790
2790
2790
2790
2790
2790
2790
2789.98
2789.59
2787.16
2781.56
2774.83
2769.74
2767.28
2766.96
2769.62
2779.35
2790.79
2798.34
2801.92
2802.41
2798.02
2791.45
2787.76
2788.43
2788.59
2784.19
2778.31
2772
2766.83
2765.32
2766.9
2770.15
2771.96
2772.22
2772.55
2770.54
2764.92
2751.38
2705.68
2790
2790
2790
2790
2790
2790
2790
2790
2790
2790
2790
2790
2790
2790
2790
2790
2790
2790
2790
2790
2790
2790
2790
2790
2790
2790
2790
2790
2790
2790
2790
2790
2790
2790
2790
2790
2790
2790
2790
2790
2790
2790
2790
2790
2790
2790
2790
2790
2790
2790
2790
2790
2790
2790
2790
2790
2790
2790
2790
2790
2790
2790
2790
2790
2790
2790
2790
2790
2790
2790
2790
2790
2790
2790
2790
2790
2790
2790
2790
2790
2790
2790
2790
2790
2790
2790
2790
2790
2789.98
2789.58
2787.13
2781.46
2774.65
2769.5
2767.01
2766.69
2769.3
2778.95
2790.42
2798.03
2801.67
2802.21
2797.79
2791.22
2787.55
2788
2788.31
2784.48
2779.22
2772.54
2767.66
2766.15
2767.28
2769.99
2771.26
2771.19
2771.07
2768.31
2761.96
2747.07
2700.59
2790
2790
2790
2790
2790
2790
2790
2790
2790
2790
2790
2790
2790
2790
2790
2790
2790
2790
2790
2790
2790
2790
2790
2790
2790
2790
2790
2790
2790
2790
2790
2790
2790
2790
2790
2790
2790
2790
2790
2790
2790
2790
2790
2790
2790
2790
2790
2790
2790
2790
2790
2790
2790
2790
2790
2790
2790
2790
2790
2790
2790
2790
2790
2790
2790
2790
2790
2790
2790
2790
2790
2790
2790
2790
2790
2790
2790
2790
2790
2790
2790
2790
2790
2790
2790
2790
2790
2790
2789.98
2789.57
2787.09
2781.35
2774.47
2769.26
2766.73
2766.4
2768.95
2778.52
2790.02
2797.7
2801.4
2802
2797.56
2790.98
2787.32
2787.45
2787.6
2783.71
2778.8
2772.91
2768.52
2766.89
2767.62
2769.71
2770.46
2770.1
2769.52
2766.04
2758.87
2742.67
2695.55
2790
2790
2790
2790
2790
2790
2790
2790
2790
2790
2790
2790
2790
2790
2790
2790
2790
2790
2790
2790
2790
2790
2790
2790
2790
2790
2790
2790
2790
2790
2790
2790
2790
2790
2790
2790
2790
2790
2790
2790
2790
2790
2790
2790
2790
2790
2790
2790
2790
2790
2790
2790
2790
2790
2790
2790
2790
2790
2790
2790
2790
2790
2790
2790
2790
2790
2790
2790
2790
2790
2790
2790
2790
2790
2790
2790
2790
2790
2790
2790
2790
2790
2790
2790
2790
2790
2790
2790
2789.98
2789.57
2787.06
2781.25
2774.28
2769
2766.44
2766.1
2768.59
2778.07
2789.58
2797.34
2801.12
2801.78
2797.32
2790.7
2787.04
2786.96
2787.24
2783.73
2778.91
2773.45
2769.43
2767.57
2767.84
2769.27
2769.59
2768.99
2767.91
2763.71
2755.67
2738.2
2690.56
2790
2790
2790
2790
2790
2790
2790
2790
2790
2790
2790
2790
2790
2790
2790
2790
2790
2790
2790
2790
2790
2790
2790
2790
2790
2790
2790
2790
2790
2790
2790
2790
2790
2790
2790
2790
2790
2790
2790
2790
2790
2790
2790
2790
2790
2790
2790
2790
2790
2790
2790
2790
2790
2790
2790
2790
2790
2790
2790
2790
2790
2790
2790
2790
2790
2790
2790
2790
2790
2790
2790
2790
2790
2790
2790
2790
2790
2790
2790
2790
2790
2790
2790
2790
2790
2790
2790
2790
2789.98
2789.56
2787.03
2781.16
2774.09
2768.73
2766.13
2765.79
2768.21
2777.57
2789.11
2796.95
2800.82
2801.56
2797.09
2790.41
2786.66
2786.29
2786.61
2783.5
2779.05
2774.09
2770.38
2768.17
2767.83
2768.66
2768.65
2767.85
2766.22
2761.32
2752.36
2733.68
2685.63
2790
2790
2790
2790
2790
2790
2790
2790
2790
2790
2790
2790
2790
2790
2790
2790
2790
2790
2790
2790
2790
2790
2790
2790
2790
2790
2790
2790
2790
2790
2790
2790
2790
2790
2790
2790
2790
2790
2790
2790
2790
2790
2790
2790
2790
2790
2790
2790
2790
2790
2790
2790
2790
2790
2790
2790
2790
2790
2790
2790
2790
2790
2790
2790
2790
2790
2790
2790
2790
2790
2790
2790
2790
2790
2790
2790
2790
2790
2790
2790
2790
2790
2790
2790
2790
2790
2790
2790
2789.98
2789.56
2787.01
2781.07
2773.9
2768.46
2765.81
2765.45
2767.8
2777.04
2788.6
2796.54
2800.49
2801.33
2796.84
2790.08
2786.26
2785.74
2786.11
2783.27
2779.16
2774.77
2771.17
2768.5
2767.59
2767.91
2767.69
2766.69
2764.46
2758.85
2748.98
2729.13
2680.78
2790
2790
2790
2790
2790
2790
2790
2790
2790
2790
2790
2790
2790
2790
2790
2790
2790
2790
2790
2790
2790
2790
2790
2790
2790
2790
2790
2790
2790
2790
2790
2790
2790
2790
2790
2790
2790
2790
2790
2790
2790
2790
2790
2790
2790
2790
2790
2790
2790
2790
2790
2790
2790
2790
2790
2790
2790
2790
2790
2790
2790
2790
2790
2790
2790
2790
2790
2790
2790
2790
2790
2790
2790
2790
2790
2790
2790
2790
2790
2790
2790
2790
2790
2790
2790
2790
2790
2790
2789.98
2789.56
2786.99
2780.98
2773.72
2768.18
2765.48
2765.1
2767.36
2776.46
2788.05
2796.09
2800.15
2801.1
2796.6
2789.74
2785.75
2785.02
2785.37
2783.02
2779.19
2775.28
2771.63
2768.57
2767.16
2767.1
2766.75
2765.47
2762.59
2756.31
2745.53
2724.56
2676
2790
2790
2790
2790
2790
2790
2790
2790
2790
2790
2790
2790
2790
2790
2790
2790
2790
2790
2790
2790
2790
2790
2790
2790
2790
2790
2790
2790
2790
2790
2790
2790
2790
2790
2790
2790
2790
2790
2790
2790
2790
2790
2790
2790
2790
2790
2790
2790
2790
2790
2790
2790
2790
2790
2790
2790
2790
2790
2790
2790
2790
2790
2790
2790
2790
2790
2790
2790
2790
2790
2790
2790
2790
2790
2790
2790
2790
2790
2790
2790
2790
2790
2790
2790
2790
2790
2790
2790
2789.98
2789.56
2786.98
2780.9
2773.53
2767.89
2765.12
2764.73
2766.9
2775.84
2787.45
2795.6
2799.77
2800.84
2796.35
2789.39
2785.3
2784.43
2784.65
2782.67
2779.12
2775.48
2771.72
2768.44
2766.62
2766.31
2765.83
2764.16
2760.6
2753.69
2742.04
2720
2671.32
2790
2790
2790
2790
2790
2790
2790
2790
2790
2790
2790
2790
2790
2790
2790
2790
2790
2790
2790
2790
2790
2790
2790
2790
2790
2790
2790
2790
2790
2790
2790
2790
2790
2790
2790
2790
2790
2790
2790
2790
2790
2790
2790
2790
2790
2790
2790
2790
2790
2790
2790
2790
2790
2790
2790
2790
2790
2790
2790
2790
2790
2790
2790
2790
2790
2790
2790
2790
2790
2790
2790
2790
2790
2790
2790
2790
2790
2790
2790
2790
2790
2790
2790
2790
2790
2790
2790
2790
2789.98
2789.57
2786.97
2780.84
2773.34
2767.59
2764.76
2764.33
2766.42
2775.18
2786.79
2795.06
2799.36
2800.56
2796.11
2789.05
2784.8
2783.74
2783.8
2782.22
2778.91
2775.36
2771.52
2768.16
2766.12
2765.6
2764.89
2762.71
2758.48
2751.01
2738.54
2715.45
2666.75
2790
2790
2790
2790
2790
2790
2790
2790
2790
2790
2790
2790
2790
2790
2790
2790
2790
2790
2790
2790
2790
2790
2790
2790
2790
2790
2790
2790
2790
2790
2790
2790
2790
2790
2790
2790
2790
2790
2790
2790
2790
2790
2790
2790
2790
2790
2790
2790
2790
2790
2790
2790
2790
2790
2790
2790
2790
2790
2790
2790
2790
2790
2790
2790
2790
2790
2790
2790
2790
2790
2790
2790
2790
2790
2790
2790
2790
2790
2790
2790
2790
2790
2790
2790
2790
2790
2790
2790
2789.98
2789.57
2786.98
2780.78
2773.17
2767.29
2764.37
2763.92
2765.91
2774.46
2786.08
2794.47
2798.9
2800.25
2795.88
2788.78
2784.45
2783.22
2783.01
2781.58
2778.45
2774.96
2771.19
2767.95
2765.79
2764.97
2763.88
2761.1
2756.26
2748.28
2735.03
2710.9
2662.33
2790
2790
2790
2790
2790
2790
2790
2790
2790
2790
2790
2790
2790
2790
2790
2790
2790
2790
2790
2790
2790
2790
2790
2790
2790
2790
2790
2790
2790
2790
2790
2790
2790
2790
2790
2790
2790
2790
2790
2790
2790
2790
2790
2790
2790
2790
2790
2790
2790
2790
2790
2790
2790
2790
2790
2790
2790
2790
2790
2790
2790
2790
2790
2790
2790
2790
2790
2790
2790
2790
2790
2790
2790
2790
2790
2790
2790
2790
2790
2790
2790
2790
2790
2790
2790
2790
2790
2790
2789.98
2789.58
2786.99
2780.74
2773
2766.98
2763.97
2763.48
2765.36
2773.69
2785.3
2793.83
2798.4
2799.9
2795.64
2788.47
2784.06
2782.66
2782.27
2780.87
2777.83
2774.43
2770.91
2767.9
2765.62
2764.35
2762.74
2759.34
2753.98
2745.54
2731.48
2706.35
2658.1
2790
2790
2790
2790
2790
2790
2790
2790
2790
2790
2790
2790
2790
2790
2790
2790
2790
2790
2790
2790
2790
2790
2790
2790
2790
2790
2790
2790
2790
2790
2790
2790
2790
2790
2790
2790
2790
2790
2790
2790
2790
2790
2790
2790
2790
2790
2790
2790
2790
2790
2790
2790
2790
2790
2790
2790
2790
2790
2790
2790
2790
2790
2790
2790
2790
2790
2790
2790
2790
2790
2790
2790
2790
2790
2790
2790
2790
2790
2790
2790
2790
2790
2790
2790
2790
2790
2790
2790
2789.98
2789.59
2787.02
2780.73
2772.84
2766.66
2763.55
2763.02
2764.79
2772.86
2784.46
2793.12
2797.83
2799.51
2795.44
2788.3
2783.85
2782.28
2781.65
2780.11
2777.27
2774.13
2770.95
2768.07
2765.47
2763.62
2761.45
2757.52
2751.69
2742.75
2727.85
2701.83
2654.11
2790
2790
2790
2790
2790
2790
2790
2790
2790
2790
2790
2790
2790
2790
2790
2790
2790
2790
2790
2790
2790
2790
2790
2790
2790
2790
2790
2790
2790
2790
2790
2790
2790
2790
2790
2790
2790
2790
2790
2790
2790
2790
2790
2790
2790
2790
2790
2790
2790
2790
2790
2790
2790
2790
2790
2790
2790
2790
2790
2790
2790
2790
2790
2790
2790
2790
2790
2790
2790
2790
2790
2790
2790
2790
2790
2790
2790
2790
2790
2790
2790
2790
2790
2790
2790
2790
2790
2790
2789.99
2789.61
2787.07
2780.73
2772.7
2766.35
2763.11
2762.52
2764.19
2771.97
2783.54
2792.35
2797.22
2799.08
2795.19
2788
2783.48
2781.83
2781.06
2779.42
2776.77
2773.91
2771.02
2768.13
2765.15
2762.71
2760.11
2755.77
2749.43
2739.87
2724.12
2697.38
2650.39
2790
2790
2790
2790
2790
2790
2790
2790
2790
2790
2790
2790
2790
2790
2790
2790
2790
2790
2790
2790
2790
2790
2790
2790
2790
2790
2790
2790
2790
2790
2790
2790
2790
2790
2790
2790
2790
2790
2790
2790
2790
2790
2790
2790
2790
2790
2790
2790
2790
2790
2790
2790
2790
2790
2790
2790
2790
2790
2790
2790
2790
2790
2790
2790
2790
2790
2790
2790
2790
2790
2790
2790
2790
2790
2790
2790
2790
2790
2790
2790
2790
2790
2790
2790
2790
2790
2790
2790
2789.99
2789.62
2787.13
2780.76
2772.57
2766.03
2762.65
2762
2763.56
2771.01
2782.54
2791.51
2796.54
2798.63
2795.04
2787.86
2783.19
2781.35
2780.38
2778.75
2776.36
2773.65
2770.84
2767.83
2764.5
2761.63
2758.8
2754.1
2747.13
2736.84
2720.3
2693.09
2646.93
2790
2790
2790
2790
2790
2790
2790
2790
2790
2790
2790
2790
2790
2790
2790
2790
2790
2790
2790
2790
2790
2790
2790
2790
2790
2790
2790
2790
2790
2790
2790
2790
2790
2790
2790
2790
2790
2790
2790
2790
2790
2790
2790
2790
2790
2790
2790
2790
2790
2790
2790
2790
2790
2790
2790
2790
2790
2790
2790
2790
2790
2790
2790
2790
2790
2790
2790
2790
2790
2790
2790
2790
2790
2790
2790
2790
2790
2790
2790
2790
2790
2790
2790
2790
2790
2790
2790
2790
2789.99
2789.65
2787.21
2780.83
2772.48
2765.72
2762.18
2761.45
2762.89
2769.98
2781.45
2790.6
2795.82
2798.12
2794.82
2787.54
2782.65
2780.65
2779.58
2778.05
2775.87
2773.22
2770.26
2767.01
2763.5
2760.48
2757.55
2752.46
2744.7
2733.68
2716.5
2689.05
2643.78
2790
2790
2790
2790
2790
2790
2790
2790
2790
2790
2790
2790
2790
2790
2790
2790
2790
2790
2790
2790
2790
2790
2790
2790
2790
2790
2790
2790
2790
2790
2790
2790
2790
2790
2790
2790
2790
2790
2790
2790
2790
2790
2790
2790
2790
2790
2790
2790
2790
2790
2790
2790
2790
2790
2790
2790
2790
2790
2790
2790
2790
2790
2790
2790
2790
2790
2790
2790
2790
2790
2790
2790
2790
2790
2790
2790
2790
2790
2790
2790
2790
2790
2790
2790
2790
2790
2790
2790
2789.99
2789.67
2787.31
2780.93
2772.41
2765.41
2761.69
2760.86
2762.19
2768.88
2780.25
2789.59
2795.03
2797.59
2794.71
2787.37
2782.15
2779.84
2778.63
2777.23
2775.16
2772.43
2769.27
2765.92
2762.41
2759.3
2756.2
2750.62
2742.09
2730.45
2712.79
2685.25
2640.96
2790
2790
2790
2790
2790
2790
2790
2790
2790
2790
2790
2790
2790
2790
2790
2790
2790
2790
2790
2790
2790
2790
2790
2790
2790
2790
2790
2790
2790
2790
2790
2790
2790
2790
2790
2790
2790
2790
2790
2790
2790
2790
2790
2790
2790
2790
2790
2790
2790
2790
2790
2790
2790
2790
2790
2790
2790
2790
2790
2790
2790
2790
2790
2790
2790
2790
2790
2790
2790
2790
2790
2790
2790
2790
2790
2790
2790
2790
2790
2790
2790
2790
2790
2790
2790
2790
2790
2790
2789.99
2789.7
2787.43
2781.08
2772.39
2765.13
2761.18
2760.24
2761.46
2767.7
2778.94
2788.48
2794.15
2796.94
2794.49
2787.07
2781.54
2778.99
2777.68
2776.33
2774.34
2771.63
2768.44
2765.04
2761.41
2758.03
2754.6
2748.59
2739.45
2727.32
2709.25
2681.71
2638.52
2790
2790
2790
2790
2790
2790
2790
2790
2790
2790
2790
2790
2790
2790
2790
2790
2790
2790
2790
2790
2790
2790
2790
2790
2790
2790
2790
2790
2790
2790
2790
2790
2790
2790
2790
2790
2790
2790
2790
2790
2790
2790
2790
2790
2790
2790
2790
2790
2790
2790
2790
2790
2790
2790
2790
2790
2790
2790
2790
2790
2790
2790
2790
2790
2790
2790
2790
2790
2790
2790
2790
2790
2790
2790
2790
2790
2790
2790
2790
2790
2790
2790
2790
2790
2790
2790
2790
2790
2789.99
2789.73
2787.57
2781.28
2772.42
2764.85
2760.66
2759.58
2760.69
2766.45
2777.51
2787.26
2793.19
2796.24
2794.36
2786.99
2781.14
2778.34
2776.93
2775.6
2773.74
2771.16
2768
2764.45
2760.46
2756.61
2752.78
2746.47
2736.88
2724.32
2705.86
2678.37
2636.42
2790
2790
2790
2790
2790
2790
2790
2790
2790
2790
2790
2790
2790
2790
2790
2790
2790
2790
2790
2790
2790
2790
2790
2790
2790
2790
2790
2790
2790
2790
2790
2790
2790
2790
2790
2790
2790
2790
2790
2790
2790
2790
2790
2790
2790
2790
2790
2790
2790
2790
2790
2790
2790
2790
2790
2790
2790
2790
2790
2790
2790
2790
2790
2790
2790
2790
2790
2790
2790
2790
2790
2790
2790
2790
2790
2790
2790
2790
2790
2790
2790
2790
2790
2790
2790
2790
2790
2790
2789.99
2789.77
2787.74
2781.55
2772.52
2764.62
2760.13
2758.87
2759.88
2765.12
2775.96
2785.9
2792.1
2795.37
2794.06
2786.79
2780.76
2777.83
2776.36
2775.03
2773.28
2770.82
2767.63
2763.84
2759.43
2755.11
2750.95
2744.45
2734.47
2721.42
2702.6
2675.32
2634.7
2790
2790
2790
2790
2790
2790
2790
2790
2790
2790
2790
2790
2790
2790
2790
2790
2790
2790
2790
2790
2790
2790
2790
2790
2790
2790
2790
2790
2790
2790
2790
2790
2790
2790
2790
2790
2790
2790
2790
2790
2790
2790
2790
2790
2790
2790
2790
2790
2790
2790
2790
2790
2790
2790
2790
2790
2790
2790
2790
2790
2790
2790
2790
2790
2790
2790
2790
2790
2790
2790
2790
2790
2790
2790
2790
2790
2790
2790
2790
2790
2790
2790
2790
2790
2790
2790
2790
2790
2790
2789.8
2787.93
2781.88
2772.69
2764.42
2759.59
2758.13
2759.02
2763.72
2774.27
2784.42
2790.91
2794.41
2793.84
2786.85
2780.56
2777.38
2775.78
2774.42
2772.67
2770.23
2766.98
2763.02
2758.31
2753.59
2749.13
2742.45
2732.08
2718.51
2699.47
2672.6
2633.4
2790
2790
2790
2790
2790
2790
2790
2790
2790
2790
2790
2790
2790
2790
2790
2790
2790
2790
2790
2790
2790
2790
2790
2790
2790
2790
2790
2790
2790
2790
2790
2790
2790
2790
2790
2790
2790
2790
2790
2790
2790
2790
2790
2790
2790
2790
2790
2790
2790
2790
2790
2790
2790
2790
2790
2790
2790
2790
2790
2790
2790
2790
2790
2790
2790
2790
2790
2790
2790
2790
2790
2790
2790
2790
2790
2790
2790
2790
2790
2790
2790
2790
2790
2790
2790
2790
2790
2790
2790
2789.84
2788.15
2782.28
2772.96
2764.29
2759.05
2757.34
2758.11
2762.25
2772.41
2782.76
2789.55
2793.3
2793.47
2786.86
2780.36
2776.82
2774.97
2773.48
2771.69
2769.27
2766.06
2762.05
2757.14
2752.08
2747.29
2740.41
2729.68
2715.66
2696.54
2670.26
2632.59
2790
2790
2790
2790
2790
2790
2790
2790
2790
2790
2790
2790
2790
2790
2790
2790
2790
2790
2790
2790
2790
2790
2790
2790
2790
2790
2790
2790
2790
2790
2790
2790
2790
2790
2790
2790
2790
2790
2790
2790
2790
2790
2790
2790
2790
2790
2790
2790
2790
2790
2790
2790
2790
2790
2790
2790
2790
2790
2790
2790
2790
2790
2790
2790
2790
2790
2790
2790
2790
2790
2790
2790
2790
2790
2790
2790
2790
2790
2790
2790
2790
2790
2790
2790
2790
2790
2790
2790
2790
2789.87
2788.38
2782.77
2773.35
2764.23
2758.52
2756.52
2757.16
2760.72
2770.41
2780.95
2788.1
2792.12
2793.12
2787.06
2780.22
2776.11
2773.89
2772.24
2770.45
2768.11
2765.01
2761
2755.92
2750.53
2745.39
2738.29
2727.29
2712.92
2693.85
2668.26
2632.25
2790
2790
2790
2790
2790
2790
2790
2790
2790
2790
2790
2790
2790
2790
2790
2790
2790
2790
2790
2790
2790
2790
2790
2790
2790
2790
2790
2790
2790
2790
2790
2790
2790
2790
2790
2790
2790
2790
2790
2790
2790
2790
2790
2790
2790
2790
2790
2790
2790
2790
2790
2790
2790
2790
2790
2790
2790
2790
2790
2790
2790
2790
2790
2790
2790
2790
2790
2790
2790
2790
2790
2790
2790
2790
2790
2790
2790
2790
2790
2790
2790
2790
2790
2790
2790
2790
2790
2790
2790
2789.9
2788.62
2783.34
2773.88
2764.29
2758.03
2755.66
2756.1
2759.11
2768.2
2778.9
2786.45
2790.77
2792.57
2787.25
2780.04
2775.3
2772.69
2770.96
2769.29
2767.05
2763.96
2759.89
2754.63
2748.93
2743.49
2736.21
2725.02
2710.38
2691.43
2666.6
2632.38
2790
2790
2790
2790
2790
2790
2790
2790
2790
2790
2790
2790
2790
2790
2790
2790
2790
2790
2790
2790
2790
2790
2790
2790
2790
2790
2790
2790
2790
2790
2790
2790
2790
2790
2790
2790
2790
2790
2790
2790
2790
2790
2790
2790
2790
2790
2790
2790
2790
2790
2790
2790
2790
2790
2790
2790
2790
2790
2790
2790
2790
2790
2790
2790
2790
2790
2790
2790
2790
2790
2790
2790
2790
2790
2790
2790
2790
2790
2790
2790
2790
2790
2790
2790
2790
2790
2790
2790
2790
2789.93
2788.87
2784
2774.57
2764.49
2757.58
2754.77
2754.99
2757.49
2765.85
2776.7
2784.71
2789.34
2791.73
2787.35
2779.88
2774.57
2771.68
2769.91
2768.3
2766.09
2762.95
2758.74
2753.24
2747.27
2741.56
2734.14
2722.87
2708.01
2689.26
2665.28
2632.94
2790
2790
2790
2790
2790
2790
2790
2790
2790
2790
2790
2790
2790
2790
2790
2790
2790
2790
2790
2790
2790
2790
2790
2790
2790
2790
2790
2790
2790
2790
2790
2790
2790
2790
2790
2790
2790
2790
2790
2790
2790
2790
2790
2790
2790
2790
2790
2790
2790
2790
2790
2790
2790
2790
2790
2790
2790
2790
2790
2790
2790
2790
2790
2790
2790
2790
2790
2790
2790
2790
2790
2790
2790
2790
2790
2790
2790
2790
2790
2790
2790
2790
2790
2790
2790
2790
2790
2790
2790
2789.95
2789.12
2784.74
2775.46
2764.88
2757.22
2753.84
2753.73
2755.79
2763.27
2774.17
2782.69
2787.7
2790.6
2787.42
2779.81
2774.01
2770.91
2769.14
2767.57
2765.35
2762.06
2757.65
2751.83
2745.52
2739.57
2732.06
2720.83
2705.85
2687.43
2664.33
2633.93
2790
2790
2790
2790
2790
2790
2790
2790
2790
2790
2790
2790
2790
2790
2790
2790
2790
2790
2790
2790
2790
2790
2790
2790
2790
2790
2790
2790
2790
2790
2790
2790
2790
2790
2790
2790
2790
2790
2790
2790
2790
2790
2790
2790
2790
2790
2790
2790
2790
2790
2790
2790
2790
2790
2790
2790
2790
2790
2790
2790
2790
2790
2790
2790
2790
2790
2790
2790
2790
2790
2790
2790
2790
2790
2790
2790
2790
2790
2790
2790
2790
2790
2790
2790
2790
2790
2790
2790
2790
2789.97
2789.35
2785.55
2776.56
2765.51
2757.01
2752.91
2752.43
2754.11
2760.56
2771.4
2780.49
2785.91
2789.07
2787.31
2780.04
2773.81
2770.34
2768.37
2766.66
2764.43
2761.16
2756.61
2750.46
2743.77
2737.54
2729.96
2718.83
2703.9
2685.96
2663.92
2635.36
2790
2790
2790
2790
2790
2790
2790
2790
2790
2790
2790
2790
2790
2790
2790
2790
2790
2790
2790
2790
2790
2790
2790
2790
2790
2790
2790
2790
2790
2790
2790
2790
2790
2790
2790
2790
2790
2790
2790
2790
2790
2790
2790
2790
2790
2790
2790
2790
2790
2790
2790
2790
2790
2790
2790
2790
2790
2790
2790
2790
2790
2790
2790
2790
2790
2790
2790
2790
2790
2790
2790
2790
2790
2790
2790
2790
2790
2790
2790
2790
2790
2790
2790
2790
2790
2790
2790
2790
2790
2789.98
2789.56
2786.41
2777.9
2766.45
2756.98
2751.98
2750.95
2752.33
2757.62
2768.16
2777.84
2783.88
2787.34
2787.26
2780.66
2773.94
2769.75
2767.37
2765.49
2763.23
2760.15
2755.62
2749.23
2742.1
2735.54
2727.89
2716.88
2702.2
2684.93
2664.11
2637.15
2790
2790
2790
2790
2790
2790
2790
2790
2790
2790
2790
2790
2790
2790
2790
2790
2790
2790
2790
2790
2790
2790
2790
2790
2790
2790
2790
2790
2790
2790
2790
2790
2790
2790
2790
2790
2790
2790
2790
2790
2790
2790
2790
2790
2790
2790
2790
2790
2790
2790
2790
2790
2790
2790
2790
2790
2790
2790
2790
2790
2790
2790
2790
2790
2790
2790
2790
2790
2790
2790
2790
2790
2790
2790
2790
2790
2790
2790
2790
2790
2790
2790
2790
2790
2790
2790
2790
2790
2790
2789.99
2789.72
2787.26
2779.47
2767.77
2757.25
2751.17
2749.46
2750.52
2754.62
2764.59
2774.89
2781.67
2785.53
2786.87
2781.43
2774.12
2769
2765.82
2763.77
2761.67
2758.89
2754.54
2748.06
2740.54
2733.61
2725.89
2715.05
2700.84
2684.42
2664.84
2639.05
2790
2790
2790
2790
2790
2790
2790
2790
2790
2790
2790
2790
2790
2790
2790
2790
2790
2790
2790
2790
2790
2790
2790
2790
2790
2790
2790