/*--------------------------------*- C++ -*----------------------------------*\
| =========                 |                                                 |
| \\      /  F ield         | OpenFOAM: The Open Source CFD Toolbox           |
|  \\    /   O peration     | Version:  2412                                  |
|   \\  /    A nd           | Website:  www.openfoam.com                      |
|    \\/     M anipulation  |                                                 |
\*---------------------------------------------------------------------------*/
FoamFile
{
    version     2.0;
    format      ascii;
    arch        "LSB;label=32;scalar=64";
    class       volScalarField;
    location    "0.082";
    object      p;
}
// * * * * * * * * * * * * * * * * * * * * * * * * * * * * * * * * * * * * * //

dimensions      [1 -1 -2 0 0 0 0];

internalField   nonuniform List<scalar> 
9816
(
2959.07
2959.39
2959.58
2959.69
2959.69
2959.59
2959.41
2959.14
2958.78
2958.33
2957.83
2957.26
2956.64
2955.97
2955.25
2954.48
2953.68
2952.77
2952.04
2951.15
2950.26
2949.34
2948.38
2947.38
2946.36
2945.29
2944.2
2943.04
2941.92
2940.74
2939.69
2938.6
2937.54
2936.5
2935.41
2934.44
2933.31
2932.39
2931.15
2930.35
2929.11
2928.75
2888.87
2887.88
2886.87
2885.85
2884.82
2883.79
2882.74
2881.67
2880.62
2879.56
2878.52
2877.48
2876.45
2875.42
2874.49
2873.52
2872.61
2871.7
2870.81
2869.95
2869.1
2868.29
2867.5
2866.81
2866.09
2865.56
2864.97
2864.57
2864.07
2863.69
2863.15
2862.69
2862.13
2861.65
2861.15
2860.72
2860.34
2860.02
2859.8
2859.49
2859.14
2858.24
2855.44
2854.54
2853.64
2852.78
2851.94
2851.13
2850.33
2849.57
2848.83
2848.12
2847.43
2846.74
2846.11
2845.46
2844.89
2844.3
2843.74
2843.21
2842.69
2842.19
2841.72
2841.26
2840.87
2840.4
2840.04
2839.57
2839.21
2838.73
2838.37
2837.95
2837.63
2837.22
2836.86
2836.93
2836.72
2835.59
2835.59
2836.4
2836.38
2835.62
2835.03
2834.6
2835.31
2834.59
2833.9
2833.22
2832.56
2831.92
2831.29
2830.69
2830.1
2829.53
2828.99
2828.43
2827.96
2827.47
2827.02
2826.58
2826.17
2825.75
2825.36
2825
2824.67
2824.31
2824
2823.68
2823.41
2823.12
2822.87
2822.62
2822.35
2822.08
2822.02
2821.84
2821.06
2821.33
2822.1
2821.48
2820.37
2820.24
2820.33
2820.62
2820.94
2820.94
2821.31
2820.7
2820.12
2819.57
2819.05
2818.55
2818.08
2817.65
2817.2
2816.83
2816.45
2816.09
2815.75
2815.42
2815.1
2814.79
2814.5
2814.22
2813.96
2813.69
2813.46
2813.19
2813
2812.76
2812.6
2812.37
2812.23
2812
2811.84
2811.86
2811.66
2810.91
2811.33
2812.11
2811.5
2810.35
2810.14
2810.31
2810.67
2811
2811.16
2810.96
2811.92
2811.47
2811.04
2810.63
2810.24
2809.85
2809.48
2809.13
2808.79
2808.46
2808.14
2807.83
2807.53
2807.25
2806.98
2806.72
2806.48
2806.25
2806.01
2805.81
2805.62
2805.47
2805.29
2805.14
2804.97
2804.81
2804.68
2804.6
2804.39
2804.12
2804.5
2804.56
2803.48
2803.26
2803.8
2804.21
2804.21
2803.77
2803.34
2803.02
2802.85
2802.88
2804.99
2804.58
2804.18
2803.8
2803.43
2803.08
2802.74
2802.41
2802.1
2801.8
2801.51
2801.24
2800.99
2800.74
2800.51
2800.31
2800.11
2799.93
2799.78
2799.62
2799.47
2799.29
2799.14
2798.97
2798.85
2798.68
2798.62
2798.51
2798.12
2798.1
2798.77
2798.31
2797.16
2797.27
2797.75
2798.3
2798.36
2798.08
2797.62
2797.22
2796.97
2796.94
2799.66
2799.31
2798.98
2798.67
2798.37
2798.09
2797.83
2797.58
2797.34
2797.12
2796.91
2796.7
2796.51
2796.33
2796.14
2795.98
2795.81
2795.66
2795.48
2795.34
2795.18
2795.06
2794.95
2794.86
2794.79
2794.74
2794.76
2794.59
2794.37
2794.81
2794.96
2793.89
2793.59
2794.1
2794.66
2794.78
2794.56
2794.07
2793.63
2793.43
2793.4
2793.56
2796.15
2795.87
2795.6
2795.35
2795.11
2794.87
2794.65
2794.44
2794.24
2794.05
2793.87
2793.69
2793.52
2793.36
2793.22
2793.07
2792.95
2792.81
2792.69
2792.57
2792.46
2792.35
2792.26
2792.15
2792.05
2791.95
2791.88
2791.67
2791.6
2791.96
2791.72
2790.87
2791.09
2791.77
2792.03
2791.79
2791.15
2790.81
2790.69
2790.74
2790.96
2791.26
2794.02
2793.79
2793.56
2793.34
2793.13
2792.93
2792.74
2792.55
2792.37
2792.19
2792.02
2791.86
2791.7
2791.54
2791.4
2791.25
2791.13
2790.99
2790.89
2790.76
2790.68
2790.56
2790.49
2790.38
2790.29
2790.19
2790.13
2790.04
2789.86
2789.89
2790.13
2789.71
2789.17
2789.49
2790.01
2790.11
2789.88
2789.34
2789.13
2789.06
2789.11
2789.32
2791.99
2791.76
2791.54
2791.33
2791.13
2790.95
2790.78
2790.62
2790.47
2790.34
2790.22
2790.1
2789.99
2789.89
2789.8
2789.71
2789.63
2789.54
2789.48
2789.39
2789.34
2789.27
2789.23
2789.17
2789.14
2789.1
2789.05
2789.06
2789.02
2788.83
2788.83
2789.23
2789.03
2788.38
2788.34
2788.67
2789.01
2789.07
2788.98
2788.68
2788.39
2788.26
2791.38
2791.25
2791.11
2790.98
2790.85
2790.72
2790.59
2790.46
2790.34
2790.21
2790.09
2789.97
2789.85
2789.75
2789.64
2789.55
2789.45
2789.37
2789.28
2789.22
2789.13
2789.09
2788.99
2788.96
2788.87
2788.83
2788.73
2788.73
2788.71
2788.54
2788.39
2788.82
2788.88
2788.2
2787.91
2788.15
2788.5
2788.76
2788.77
2788.54
2788.22
2787.96
2790.95
2790.8
2790.66
2790.52
2790.4
2790.27
2790.17
2790.07
2789.98
2789.89
2789.81
2789.73
2789.65
2789.58
2789.52
2789.45
2789.4
2789.33
2789.28
2789.21
2789.16
2789.11
2789.05
2789.01
2788.96
2788.92
2788.87
2788.87
2788.79
2788.65
2788.78
2789.02
2788.55
2788.15
2788.45
2788.84
2788.96
2788.85
2788.48
2788.26
2788.16
2788.19
2790.76
2790.65
2790.55
2790.45
2790.37
2790.28
2790.2
2790.13
2790.06
2790
2789.94
2789.89
2789.84
2789.79
2789.75
2789.7
2789.66
2789.62
2789.58
2789.55
2789.5
2789.48
2789.44
2789.42
2789.37
2789.36
2789.32
2789.28
2789.27
2789.35
2789.16
2788.96
2789.28
2789.54
2789.27
2788.86
2788.8
2788.85
2789.04
2789.22
2789.29
2789.24
2791.19
2791.12
2791.04
2790.97
2790.89
2790.82
2790.74
2790.67
2790.6
2790.53
2790.47
2790.42
2790.36
2790.32
2790.27
2790.23
2790.18
2790.15
2790.11
2790.08
2790.04
2790.01
2789.97
2789.95
2789.92
2789.9
2789.85
2789.86
2789.9
2789.73
2789.54
2789.91
2790.18
2789.76
2789.29
2789.3
2789.48
2789.78
2790
2790.01
2789.85
2789.59
2791.46
2791.4
2791.34
2791.29
2791.24
2791.2
2791.17
2791.13
2791.1
2791.07
2791.03
2791
2790.97
2790.94
2790.92
2790.89
2790.87
2790.84
2790.83
2790.79
2790.79
2790.76
2790.75
2790.72
2790.72
2790.7
2790.67
2790.63
2790.71
2790.73
2790.4
2790.4
2790.89
2790.99
2790.57
2790.23
2790.21
2790.31
2790.55
2790.78
2790.84
2790.76
2792.04
2792.01
2791.99
2791.96
2791.94
2791.92
2791.91
2791.89
2791.87
2791.86
2791.84
2791.83
2791.82
2791.8
2791.8
2791.77
2791.78
2791.75
2791.76
2791.73
2791.74
2791.71
2791.73
2791.69
2791.7
2791.69
2791.69
2791.63
2791.69
2791.81
2791.54
2791.3
2791.71
2792.1
2791.92
2791.46
2791.26
2791.25
2791.39
2791.68
2791.9
2791.94
2792.75
2792.76
2792.76
2792.77
2792.78
2792.78
2792.78
2792.79
2792.79
2792.79
2792.79
2792.8
2792.79
2792.8
2792.79
2792.8
2792.79
2792.8
2792.78
2792.78
2792.77
2792.77
2792.77
2792.76
2792.75
2792.75
2792.73
2792.72
2792.79
2792.78
2792.49
2792.59
2793.06
2793.04
2792.55
2792.33
2792.37
2792.57
2792.86
2793.02
2793.01
2792.85
2793.49
2793.52
2793.55
2793.57
2793.6
2793.62
2793.64
2793.66
2793.68
2793.7
2793.72
2793.73
2793.75
2793.75
2793.78
2793.77
2793.8
2793.78
2793.81
2793.79
2793.82
2793.8
2793.82
2793.81
2793.82
2793.82
2793.81
2793.79
2793.88
2793.91
2793.59
2793.61
2794.12
2794.24
2793.83
2793.48
2793.47
2793.58
2793.84
2794.08
2794.15
2794.09
2794.32
2794.37
2794.41
2794.45
2794.49
2794.53
2794.57
2794.6
2794.64
2794.66
2794.7
2794.73
2794.76
2794.78
2794.81
2794.82
2794.84
2794.86
2794.88
2794.9
2794.91
2794.92
2794.93
2794.94
2794.95
2794.96
2794.98
2794.92
2794.94
2795.15
2795.07
2794.65
2794.77
2795.2
2795.38
2795.24
2794.92
2794.75
2794.72
2794.8
2794.97
2795.17
2795.16
2795.23
2795.29
2795.35
2795.41
2795.46
2795.52
2795.57
2795.61
2795.67
2795.7
2795.75
2795.77
2795.82
2795.83
2795.88
2795.89
2795.93
2795.94
2795.97
2795.99
2796.01
2796.03
2796.03
2796.05
2796.09
2796.07
2795.97
2796.11
2796.4
2796.08
2795.66
2795.88
2796.26
2796.53
2796.46
2796.2
2795.98
2795.83
2795.82
2795.93
2796.14
2796.02
2796.11
2796.19
2796.27
2796.34
2796.42
2796.49
2796.54
2796.61
2796.65
2796.71
2796.73
2796.79
2796.8
2796.87
2796.87
2796.94
2796.94
2796.99
2797
2797.03
2797.05
2797.07
2797.09
2797.08
2797.07
2797.16
2797.26
2797.01
2796.88
2797.23
2797.49
2797.35
2797.12
2796.99
2796.93
2797
2797.16
2797.33
2797.41
2797.41
2797.35
2796.86
2796.95
2797.04
2797.12
2797.2
2797.28
2797.34
2797.4
2797.45
2797.52
2797.55
2797.62
2797.64
2797.72
2797.72
2797.81
2797.8
2797.88
2797.86
2797.93
2797.92
2797.98
2797.96
2797.96
2798.01
2798.17
2798
2797.7
2798.02
2798.48
2798.39
2798.03
2797.84
2797.74
2797.84
2798.08
2798.34
2798.47
2798.46
2798.34
2798.19
2798.01
2797.6
2797.69
2797.78
2797.86
2797.95
2798.03
2798.08
2798.17
2798.21
2798.3
2798.32
2798.41
2798.43
2798.5
2798.53
2798.58
2798.62
2798.65
2798.69
2798.7
2798.74
2798.74
2798.79
2798.85
2798.73
2798.63
2799.02
2799.23
2798.79
2798.51
2798.58
2798.82
2799.12
2799.27
2799.23
2799.07
2798.88
2798.75
2798.68
2798.69
2798.78
2798.95
2798.29
2798.41
2798.51
2798.61
2798.71
2798.78
2798.87
2798.92
2799.02
2799.04
2799.16
2799.16
2799.28
2799.26
2799.37
2799.37
2799.45
2799.46
2799.51
2799.52
2799.57
2799.6
2799.56
2799.55
2799.81
2799.82
2799.37
2799.37
2799.79
2800.11
2800.06
2799.82
2799.62
2799.5
2799.51
2799.63
2799.8
2799.97
2800.07
2800.1
2800.05
2799.95
2798.76
2798.85
2798.95
2799.03
2799.11
2799.19
2799.25
2799.34
2799.37
2799.46
2799.47
2799.58
2799.58
2799.69
2799.68
2799.77
2799.77
2799.83
2799.84
2799.91
2799.97
2799.9
2799.8
2800.19
2800.45
2799.77
2799.48
2799.95
2800.46
2800.69
2800.53
2800.23
2799.94
2799.82
2799.85
2800.02
2800.28
2800.52
2800.68
2800.72
2800.65
2800.5
2799.39
2799.52
2799.64
2799.74
2799.86
2799.93
2800.05
2800.08
2800.21
2800.23
2800.35
2800.36
2800.46
2800.47
2800.54
2800.57
2800.6
2800.64
2800.69
2800.67
2800.62
2800.86
2801.03
2800.47
2800.32
2800.92
2801.4
2801.29
2800.89
2800.67
2800.52
2800.55
2800.71
2800.93
2801.13
2801.25
2801.27
2801.18
2801.05
2800.87
2800.71
2800.59
2800.04
2800.18
2800.28
2800.42
2800.48
2800.62
2800.66
2800.8
2800.84
2800.94
2801.01
2801.06
2801.14
2801.16
2801.24
2801.25
2801.34
2801.29
2801.35
2801.57
2801.52
2800.99
2801.33
2802.05
2802.04
2801.57
2801.2
2801.16
2801.26
2801.47
2801.72
2801.91
2801.99
2801.94
2801.81
2801.64
2801.49
2801.38
2801.33
2801.37
2801.47
2801.63
2800.6
2800.69
2800.85
2800.91
2801.05
2801.12
2801.24
2801.31
2801.4
2801.49
2801.54
2801.63
2801.66
2801.74
2801.77
2801.77
2801.83
2802.06
2801.95
2801.42
2801.86
2802.62
2802.52
2801.95
2801.56
2801.54
2801.69
2801.98
2802.29
2802.48
2802.51
2802.39
2802.2
2801.99
2801.82
2801.72
2801.71
2801.8
2801.96
2802.16
2802.38
2802.56
2800.98
2801.15
2801.22
2801.38
2801.44
2801.58
2801.65
2801.76
2801.84
2801.91
2801.99
2802.04
2802.11
2802.11
2802.23
2802.35
2802.11
2801.92
2802.64
2802.97
2802.34
2801.85
2801.9
2802.11
2802.44
2802.73
2802.82
2802.75
2802.6
2802.4
2802.24
2802.14
2802.14
2802.22
2802.38
2802.57
2802.76
2802.91
2803.02
2803.06
2803.04
2802.97
2801.38
2801.47
2801.62
2801.71
2801.84
2801.92
2802.04
2802.1
2802.2
2802.27
2802.33
2802.36
2802.45
2802.53
2802.44
2802.46
2802.86
2802.8
2802.22
2802.26
2802.59
2802.83
2802.97
2802.9
2802.78
2802.69
2802.62
2802.6
2802.65
2802.73
2802.85
2802.95
2803.04
2803.09
2803.1
2803.08
2803.04
2802.99
2802.93
2802.88
2802.85
2802.82
2801.65
2801.78
2801.91
2802.03
2802.13
2802.24
2802.32
2802.42
2802.47
2802.56
2802.58
2802.7
2802.76
2802.68
2802.7
2803.02
2802.97
2802.56
2802.66
2802.84
2803.06
2803.16
2803.15
2803.08
2802.98
2802.92
2802.91
2802.98
2803.09
2803.21
2803.31
2803.38
2803.41
2803.39
2803.35
2803.29
2803.23
2803.18
2803.15
2803.14
2803.15
2803.18
2801.91
2802.03
2802.15
2802.28
2802.37
2802.51
2802.54
2802.7
2802.68
2802.86
2802.81
2802.96
2802.96
2802.99
2802.9
2803.11
2803.15
2802.91
2803.04
2803.15
2803.21
2803.27
2803.31
2803.32
2803.28
2803.3
2803.3
2803.36
2803.4
2803.46
2803.5
2803.53
2803.54
2803.54
2803.54
2803.53
2803.52
2803.52
2803.53
2803.54
2803.56
2803.59
2802.08
2802.27
2802.34
2802.53
2802.57
2802.76
2802.74
2802.95
2802.9
2803.08
2803.07
2803.14
2803.06
2803.05
2803.13
2803.17
2803.26
2803.27
2803.29
2803.35
2803.35
2803.42
2803.43
2803.48
2803.49
2803.52
2803.54
2803.57
2803.6
2803.62
2803.64
2803.66
2803.68
2803.7
2803.71
2803.73
2803.74
2803.76
2803.77
2803.79
2803.8
2803.82
2802.24
2802.45
2802.52
2802.72
2802.72
2802.96
2802.89
2803.13
2803.04
2803.2
2802.98
2803.07
2803.1
2803.18
2803.22
2803.28
2803.3
2803.33
2803.39
2803.42
2803.47
2803.5
2803.54
2803.57
2803.6
2803.63
2803.65
2803.68
2803.7
2803.72
2803.74
2803.76
2803.78
2803.8
2803.81
2803.83
2803.85
2803.87
2803.88
2803.9
2803.91
2803.93
2802.41
2802.47
2802.62
2802.77
2802.77
2802.98
2802.88
2803.05
2802.82
2802.98
2802.9
2803.1
2803.15
2803.15
2803.19
2803.25
2803.29
2803.36
2803.41
2803.48
2803.53
2803.58
2803.6
2803.62
2803.61
2803.61
2803.6
2803.6
2803.6
2803.62
2803.65
2803.69
2803.73
2803.78
2803.82
2803.87
2803.91
2803.94
2803.97
2803.99
2804.01
2804.03
2802.37
2802.36
2802.66
2802.71
2802.62
2802.68
2802.71
2802.85
2802.72
2802.82
2802.75
2802.79
2802.97
2803.15
2803.27
2803.35
2803.32
2803.29
2803.23
2803.22
2803.22
2803.27
2803.34
2803.42
2803.51
2803.6
2803.67
2803.73
2803.78
2803.81
2803.82
2803.82
2803.81
2803.79
2803.77
2803.75
2803.73
2803.72
2803.7
2803.7
2803.69
2803.69
2802.38
2802.55
2801.96
2802.05
2802.81
2802.93
2802.55
2802.34
2802.2
2802.3
2802.49
2802.85
2803.12
2803.37
2803.4
2803.33
2803.13
2802.95
2802.78
2802.72
2802.74
2802.85
2803.02
2803.24
2803.46
2803.66
2803.84
2803.97
2804.05
2804.08
2804.07
2804.02
2803.95
2803.86
2803.76
2803.67
2803.57
2803.48
2803.41
2803.34
2803.29
2803.25
2802.76
2802.11
2800.95
2801.52
2802.28
2802.79
2802.84
2802.76
2802.36
2802.19
2802.07
2802.24
2802.46
2802.79
2803.04
2803.24
2803.32
2803.32
2803.24
2803.14
2803.03
2802.96
2802.92
2802.91
2802.94
2803
2803.07
2803.16
2803.25
2803.33
2803.41
2803.48
2803.54
2803.59
2803.64
2803.68
2803.71
2803.73
2803.75
2803.77
2803.78
2803.79
2801.58
2802.36
2802.16
2801.96
2801.68
2801.66
2801.87
2801.97
2802.24
2802.46
2802.62
2802.75
2802.77
2802.76
2802.69
2802.65
2802.61
2802.6
2802.61
2802.66
2802.73
2802.82
2802.93
2803.04
2803.15
2803.26
2803.35
2803.43
2803.5
2803.55
2803.58
2803.6
2803.61
2803.6
2803.6
2803.58
2803.57
2803.55
2803.53
2803.51
2803.49
2803.47
2801.01
2801.03
2801.34
2801.52
2801.88
2802.08
2802.29
2802.29
2802.28
2802.18
2802.14
2802.12
2802.16
2802.24
2802.37
2802.52
2802.67
2802.82
2802.95
2803.05
2803.11
2803.15
2803.16
2803.15
2803.13
2803.11
2803.08
2803.05
2803.03
2803.01
2803
2803
2803.01
2803.02
2803.03
2803.06
2803.09
2803.12
2803.16
2803.2
2803.24
2803.29
2801.79
2801.47
2801.21
2801.26
2801.28
2801.64
2801.85
2802.13
2802.29
2802.37
2802.36
2802.31
2802.26
2802.23
2802.24
2802.3
2802.38
2802.48
2802.59
2802.7
2802.8
2802.88
2802.96
2803.02
2803.07
2803.11
2803.14
2803.16
2803.18
2803.19
2803.2
2803.21
2803.21
2803.22
2803.23
2803.23
2803.24
2803.26
2803.27
2803.28
2803.3
2803.32
2801.4
2801.78
2801.89
2801.69
2801.51
2801.28
2801.31
2801.43
2801.68
2801.96
2802.24
2802.45
2802.59
2802.64
2802.63
2802.58
2802.51
2802.45
2802.41
2802.39
2802.4
2802.44
2802.5
2802.57
2802.66
2802.75
2802.85
2802.94
2803.03
2803.11
2803.19
2803.25
2803.31
2803.36
2803.4
2803.44
2803.47
2803.49
2803.51
2803.52
2803.53
2803.54
2801.47
2801.75
2801.65
2801.48
2801.13
2801.03
2801.07
2801.31
2801.65
2802.03
2802.36
2802.57
2802.65
2802.62
2802.51
2802.38
2802.25
2802.15
2802.09
2802.07
2802.11
2802.18
2802.29
2802.43
2802.57
2802.73
2802.88
2803.02
2803.15
2803.26
2803.36
2803.44
2803.5
2803.54
2803.58
2803.59
2803.6
2803.61
2803.6
2803.59
2803.57
2803.55
2800.95
2800.79
2800.85
2800.96
2801.16
2801.42
2801.68
2801.89
2802.02
2802.06
2802.04
2802
2801.94
2801.91
2801.91
2801.95
2802.02
2802.12
2802.25
2802.39
2802.54
2802.68
2802.81
2802.92
2803.01
2803.08
2803.13
2803.17
2803.19
2803.2
2803.2
2803.19
2803.18
2803.16
2803.14
2803.12
2803.1
2803.08
2803.06
2803.05
2803.04
2803.03
2800.8
2800.73
2801.03
2801.12
2801.35
2801.46
2801.6
2801.67
2801.73
2801.76
2801.8
2801.84
2801.9
2801.97
2802.06
2802.15
2802.25
2802.35
2802.44
2802.53
2802.61
2802.68
2802.74
2802.78
2802.82
2802.84
2802.86
2802.88
2802.89
2802.9
2802.91
2802.92
2802.92
2802.94
2802.95
2802.96
2802.97
2802.99
2803.01
2803.03
2803.05
2803.07
2801.04
2800.97
2800.89
2800.91
2801
2801.18
2801.4
2801.62
2801.83
2801.99
2802.09
2802.14
2802.15
2802.13
2802.12
2802.1
2802.11
2802.14
2802.18
2802.24
2802.32
2802.4
2802.49
2802.58
2802.67
2802.76
2802.85
2802.93
2803
2803.06
2803.12
2803.16
2803.2
2803.24
2803.27
2803.29
2803.31
2803.32
2803.33
2803.34
2803.34
2803.35
2801.12
2801.16
2801
2800.96
2800.92
2801.06
2801.24
2801.5
2801.74
2801.96
2802.12
2802.22
2802.25
2802.25
2802.22
2802.19
2802.16
2802.15
2802.17
2802.2
2802.26
2802.33
2802.41
2802.5
2802.6
2802.69
2802.79
2802.87
2802.96
2803.03
2803.09
2803.15
2803.2
2803.24
2803.28
2803.31
2803.33
2803.35
2803.37
2803.38
2803.39
2803.4
2801.13
2801.36
2801.37
2801.26
2801.11
2801.04
2801.06
2801.2
2801.4
2801.66
2801.91
2802.14
2802.32
2802.44
2802.51
2802.53
2802.51
2802.48
2802.43
2802.4
2802.37
2802.35
2802.35
2802.37
2802.4
2802.44
2802.5
2802.56
2802.63
2802.7
2802.77
2802.84
2802.92
2802.99
2803.05
2803.12
2803.18
2803.24
2803.29
2803.34
2803.39
2803.43
2800.99
2801
2801.06
2801.03
2801.09
2801.16
2801.3
2801.45
2801.63
2801.79
2801.95
2802.07
2802.16
2802.23
2802.27
2802.29
2802.3
2802.3
2802.31
2802.33
2802.35
2802.38
2802.42
2802.46
2802.52
2802.58
2802.64
2802.71
2802.78
2802.84
2802.91
2802.97
2803.03
2803.09
2803.14
2803.19
2803.24
2803.28
2803.32
2803.35
2803.38
2803.41
2800.64
2800.61
2800.74
2800.93
2801.18
2801.41
2801.63
2801.77
2801.85
2801.86
2801.86
2801.84
2801.83
2801.84
2801.88
2801.94
2802.02
2802.12
2802.23
2802.35
2802.46
2802.57
2802.67
2802.76
2802.84
2802.9
2802.96
2803
2803.04
2803.07
2803.09
2803.11
2803.12
2803.12
2803.13
2803.13
2803.13
2803.13
2803.13
2803.13
2803.13
2803.13
2800.7
2800.71
2800.73
2800.86
2801.02
2801.23
2801.42
2801.58
2801.7
2801.78
2801.85
2801.89
2801.92
2801.96
2802
2802.04
2802.09
2802.15
2802.22
2802.29
2802.37
2802.44
2802.51
2802.57
2802.64
2802.69
2802.74
2802.78
2802.82
2802.86
2802.89
2802.91
2802.94
2802.96
2802.98
2802.99
2803.01
2803.03
2803.04
2803.06
2803.07
2803.09
2800.69
2800.71
2800.71
2800.79
2800.9
2801.07
2801.24
2801.43
2801.58
2801.72
2801.83
2801.91
2801.96
2801.99
2802.01
2802.03
2802.05
2802.07
2802.1
2802.14
2802.18
2802.23
2802.29
2802.35
2802.41
2802.47
2802.53
2802.59
2802.65
2802.71
2802.76
2802.81
2802.86
2802.9
2802.94
2802.98
2803.02
2803.05
2803.08
2803.1
2803.13
2803.15
2800.42
2800.46
2800.59
2800.75
2800.95
2801.15
2801.32
2801.47
2801.56
2801.63
2801.67
2801.69
2801.7
2801.73
2801.75
2801.79
2801.84
2801.9
2801.97
2802.04
2802.12
2802.2
2802.28
2802.36
2802.43
2802.5
2802.57
2802.62
2802.68
2802.73
2802.77
2802.81
2802.84
2802.87
2802.89
2802.92
2802.94
2802.95
2802.97
2802.98
2802.99
2803.01
2800.35
2800.48
2800.69
2800.85
2801.01
2801.12
2801.21
2801.26
2801.31
2801.34
2801.39
2801.44
2801.5
2801.57
2801.66
2801.75
2801.84
2801.94
2802.03
2802.12
2802.2
2802.28
2802.34
2802.4
2802.45
2802.49
2802.52
2802.55
2802.58
2802.6
2802.61
2802.63
2802.64
2802.65
2802.66
2802.67
2802.68
2802.69
2802.7
2802.71
2802.72
2802.74
2800.38
2800.55
2800.74
2800.84
2800.92
2800.95
2800.99
2801.02
2801.08
2801.15
2801.24
2801.34
2801.46
2801.58
2801.7
2801.82
2801.92
2802.01
2802.09
2802.15
2802.2
2802.24
2802.26
2802.29
2802.3
2802.31
2802.32
2802.33
2802.34
2802.34
2802.35
2802.36
2802.37
2802.39
2802.4
2802.42
2802.44
2802.45
2802.47
2802.49
2802.52
2802.54
2800.4
2800.57
2800.7
2800.76
2800.8
2800.82
2800.86
2800.9
2800.97
2801.06
2801.17
2801.3
2801.43
2801.56
2801.69
2801.8
2801.89
2801.97
2802.03
2802.07
2802.11
2802.13
2802.14
2802.15
2802.15
2802.16
2802.16
2802.17
2802.17
2802.18
2802.19
2802.21
2802.22
2802.24
2802.26
2802.28
2802.3
2802.33
2802.35
2802.38
2802.4
2802.43
2800.36
2800.53
2800.63
2800.69
2800.73
2800.76
2800.8
2800.84
2800.92
2801
2801.11
2801.22
2801.34
2801.46
2801.58
2801.68
2801.77
2801.84
2801.9
2801.95
2801.99
2802.02
2802.04
2802.05
2802.06
2802.08
2802.09
2802.1
2802.11
2802.12
2802.13
2802.14
2802.16
2802.18
2802.19
2802.21
2802.23
2802.25
2802.27
2802.3
2802.32
2802.34
2800.29
2800.47
2800.58
2800.64
2800.67
2800.69
2800.73
2800.77
2800.85
2800.94
2801.05
2801.16
2801.28
2801.39
2801.49
2801.58
2801.66
2801.73
2801.78
2801.83
2801.87
2801.9
2801.93
2801.95
2801.97
2801.98
2802
2802.02
2802.03
2802.05
2802.06
2802.08
2802.1
2802.11
2802.13
2802.15
2802.17
2802.18
2802.2
2802.22
2802.24
2802.26
2800.24
2800.42
2800.5
2800.56
2800.58
2800.6
2800.63
2800.69
2800.78
2800.88
2801
2801.12
2801.24
2801.35
2801.45
2801.53
2801.6
2801.66
2801.71
2801.75
2801.78
2801.81
2801.83
2801.84
2801.86
2801.88
2801.89
2801.91
2801.92
2801.94
2801.95
2801.97
2801.99
2802.01
2802.03
2802.05
2802.07
2802.09
2802.11
2802.13
2802.15
2802.18
2800.16
2800.3
2800.36
2800.41
2800.45
2800.5
2800.56
2800.65
2800.75
2800.86
2800.98
2801.1
2801.2
2801.3
2801.38
2801.45
2801.51
2801.55
2801.59
2801.62
2801.64
2801.66
2801.68
2801.7
2801.72
2801.74
2801.76
2801.78
2801.8
2801.82
2801.84
2801.87
2801.89
2801.92
2801.94
2801.97
2801.99
2802.02
2802.04
2802.07
2802.09
2802.12
2800.05
2800.17
2800.24
2800.32
2800.38
2800.46
2800.53
2800.63
2800.72
2800.82
2800.92
2801.02
2801.11
2801.18
2801.25
2801.31
2801.36
2801.4
2801.44
2801.47
2801.5
2801.53
2801.55
2801.58
2801.6
2801.63
2801.65
2801.68
2801.71
2801.73
2801.76
2801.79
2801.82
2801.85
2801.87
2801.9
2801.93
2801.95
2801.98
2802
2802.03
2802.05
2799.95
2800.05
2800.14
2800.24
2800.32
2800.41
2800.5
2800.59
2800.67
2800.76
2800.84
2800.92
2800.99
2801.06
2801.12
2801.17
2801.22
2801.27
2801.31
2801.35
2801.38
2801.42
2801.45
2801.49
2801.52
2801.55
2801.58
2801.61
2801.64
2801.67
2801.7
2801.73
2801.76
2801.78
2801.81
2801.83
2801.86
2801.88
2801.9
2801.92
2801.94
2801.96
2799.85
2799.95
2800.05
2800.15
2800.24
2800.34
2800.42
2800.51
2800.59
2800.67
2800.74
2800.81
2800.87
2800.93
2800.99
2801.04
2801.1
2801.14
2801.19
2801.23
2801.28
2801.32
2801.35
2801.39
2801.43
2801.46
2801.49
2801.53
2801.56
2801.59
2801.61
2801.64
2801.67
2801.69
2801.71
2801.74
2801.76
2801.78
2801.8
2801.82
2801.84
2801.85
2799.74
2799.83
2799.94
2800.04
2800.14
2800.22
2800.31
2800.39
2800.47
2800.54
2800.61
2800.68
2800.74
2800.8
2800.86
2800.91
2800.96
2801.01
2801.06
2801.11
2801.15
2801.19
2801.23
2801.27
2801.3
2801.34
2801.37
2801.4
2801.43
2801.46
2801.49
2801.52
2801.54
2801.56
2801.59
2801.61
2801.63
2801.65
2801.67
2801.68
2801.7
2801.72
2799.62
2799.71
2799.82
2799.91
2800.01
2800.09
2800.18
2800.25
2800.33
2800.4
2800.47
2800.54
2800.6
2800.66
2800.71
2800.77
2800.82
2800.87
2800.92
2800.96
2801
2801.04
2801.08
2801.12
2801.16
2801.19
2801.22
2801.26
2801.28
2801.31
2801.34
2801.37
2801.39
2801.41
2801.44
2801.46
2801.48
2801.5
2801.51
2801.53
2801.55
2801.57
2799.49
2799.59
2799.69
2799.78
2799.88
2799.96
2800.04
2800.12
2800.19
2800.26
2800.33
2800.39
2800.46
2800.51
2800.57
2800.62
2800.67
2800.72
2800.77
2800.82
2800.86
2800.9
2800.94
2800.98
2801.01
2801.05
2801.08
2801.11
2801.14
2801.17
2801.19
2801.22
2801.24
2801.26
2801.29
2801.31
2801.33
2801.35
2801.36
2801.38
2801.4
2801.41
2799.33
2799.43
2799.53
2799.62
2799.71
2799.8
2799.88
2799.96
2800.03
2800.1
2800.17
2800.23
2800.29
2800.35
2800.41
2800.46
2800.51
2800.56
2800.61
2800.65
2800.7
2800.74
2800.78
2800.81
2800.85
2800.88
2800.92
2800.95
2800.98
2801
2801.03
2801.06
2801.08
2801.1
2801.13
2801.15
2801.17
2801.18
2801.2
2801.22
2801.24
2801.25
2799.17
2799.27
2799.36
2799.46
2799.54
2799.63
2799.71
2799.79
2799.86
2799.93
2800
2800.06
2800.12
2800.18
2800.24
2800.29
2800.34
2800.39
2800.44
2800.48
2800.53
2800.57
2800.61
2800.65
2800.68
2800.72
2800.75
2800.78
2800.81
2800.83
2800.86
2800.88
2800.91
2800.93
2800.95
2800.97
2800.99
2801.01
2801.02
2801.04
2801.05
2801.07
2799.01
2799.11
2799.2
2799.29
2799.37
2799.46
2799.53
2799.61
2799.68
2799.75
2799.82
2799.88
2799.94
2800
2800.05
2800.11
2800.16
2800.21
2800.25
2800.3
2800.34
2800.37
2800.41
2800.44
2800.48
2800.5
2800.53
2800.56
2800.59
2800.61
2800.63
2800.65
2800.68
2800.7
2800.72
2800.73
2800.75
2800.77
2800.78
2800.8
2800.81
2800.83
2798.86
2798.96
2799.05
2799.14
2799.22
2799.3
2799.38
2799.45
2799.52
2799.59
2799.65
2799.72
2799.77
2799.83
2799.88
2799.93
2799.97
2800.02
2800.06
2800.1
2800.13
2800.17
2800.2
2800.23
2800.26
2800.29
2800.32
2800.35
2800.37
2800.4
2800.42
2800.44
2800.47
2800.49
2800.51
2800.52
2800.54
2800.56
2800.58
2800.59
2800.61
2800.62
2798.7
2798.79
2798.89
2798.97
2799.06
2799.14
2799.21
2799.28
2799.35
2799.41
2799.47
2799.53
2799.58
2799.63
2799.68
2799.72
2799.77
2799.81
2799.85
2799.89
2799.92
2799.96
2799.99
2800.03
2800.06
2800.09
2800.12
2800.14
2800.17
2800.19
2800.22
2800.24
2800.26
2800.28
2800.3
2800.32
2800.34
2800.35
2800.37
2800.39
2800.4
2800.42
2798.51
2798.6
2798.69
2798.77
2798.85
2798.93
2799
2799.07
2799.13
2799.19
2799.25
2799.31
2799.37
2799.42
2799.47
2799.52
2799.56
2799.61
2799.65
2799.69
2799.72
2799.76
2799.79
2799.83
2799.86
2799.89
2799.92
2799.94
2799.97
2799.99
2800.02
2800.04
2800.06
2800.08
2800.1
2800.12
2800.14
2800.16
2800.17
2800.19
2800.2
2800.22
2798.36
2798.46
2798.55
2798.64
2798.72
2798.79
2798.86
2798.93
2798.99
2799.05
2799.11
2799.17
2799.22
2799.27
2799.32
2799.36
2799.4
2799.45
2799.49
2799.52
2799.56
2799.59
2799.63
2799.66
2799.69
2799.72
2799.74
2799.77
2799.79
2799.82
2799.84
2799.86
2799.88
2799.9
2799.92
2799.94
2799.96
2799.98
2799.99
2800.01
2800.02
2800.04
2798.18
2798.26
2798.35
2798.42
2798.5
2798.58
2798.65
2798.72
2798.78
2798.84
2798.9
2798.96
2799.01
2799.06
2799.11
2799.16
2799.2
2799.25
2799.29
2799.33
2799.36
2799.4
2799.43
2799.47
2799.5
2799.53
2799.55
2799.58
2799.61
2799.63
2799.65
2799.68
2799.7
2799.72
2799.74
2799.76
2799.77
2799.79
2799.81
2799.82
2799.84
2799.85
2798
2798.1
2798.19
2798.28
2798.37
2798.45
2798.53
2798.6
2798.67
2798.74
2798.8
2798.86
2798.92
2798.97
2799.02
2799.07
2799.12
2799.16
2799.2
2799.24
2799.28
2799.31
2799.34
2799.38
2799.41
2799.43
2799.46
2799.49
2799.51
2799.53
2799.56
2799.58
2799.6
2799.62
2799.63
2799.65
2799.67
2799.68
2799.7
2799.71
2799.73
2799.74
2797.9
2797.98
2798.06
2798.14
2798.22
2798.29
2798.37
2798.44
2798.51
2798.58
2798.65
2798.71
2798.78
2798.84
2798.89
2798.94
2798.99
2799.04
2799.08
2799.13
2799.16
2799.2
2799.24
2799.27
2799.3
2799.33
2799.36
2799.39
2799.41
2799.44
2799.46
2799.48
2799.51
2799.53
2799.54
2799.56
2799.58
2799.6
2799.61
2799.63
2799.64
2799.66
2797.86
2797.95
2798.03
2798.11
2798.19
2798.27
2798.34
2798.41
2798.48
2798.54
2798.6
2798.66
2798.72
2798.78
2798.83
2798.88
2798.93
2798.97
2799.01
2799.05
2799.09
2799.13
2799.17
2799.2
2799.23
2799.26
2799.29
2799.32
2799.34
2799.37
2799.39
2799.41
2799.44
2799.46
2799.48
2799.5
2799.51
2799.53
2799.55
2799.56
2799.58
2799.59
2797.82
2797.92
2798.01
2798.1
2798.18
2798.26
2798.33
2798.4
2798.47
2798.53
2798.59
2798.65
2798.7
2798.76
2798.81
2798.85
2798.9
2798.94
2798.99
2799.03
2799.06
2799.1
2799.13
2799.17
2799.2
2799.23
2799.26
2799.28
2799.31
2799.33
2799.36
2799.38
2799.4
2799.42
2799.44
2799.46
2799.47
2799.49
2799.51
2799.52
2799.54
2799.55
2797.83
2797.92
2798.01
2798.1
2798.18
2798.25
2798.32
2798.39
2798.46
2798.52
2798.57
2798.63
2798.68
2798.73
2798.78
2798.83
2798.87
2798.92
2798.96
2799
2799.04
2799.07
2799.11
2799.14
2799.17
2799.2
2799.23
2799.25
2799.28
2799.3
2799.33
2799.35
2799.37
2799.39
2799.41
2799.43
2799.45
2799.46
2799.48
2799.49
2799.51
2799.52
2797.81
2797.9
2797.99
2798.08
2798.15
2798.23
2798.29
2798.36
2798.42
2798.48
2798.54
2798.6
2798.65
2798.7
2798.75
2798.79
2798.84
2798.88
2798.92
2798.96
2798.99
2799.03
2799.06
2799.09
2799.13
2799.15
2799.18
2799.21
2799.24
2799.26
2799.28
2799.3
2799.33
2799.35
2799.37
2799.38
2799.4
2799.42
2799.43
2799.45
2799.46
2799.48
2797.72
2797.81
2797.9
2797.98
2798.05
2798.13
2798.2
2798.26
2798.32
2798.38
2798.44
2798.5
2798.55
2798.6
2798.64
2798.69
2798.73
2798.77
2798.81
2798.85
2798.89
2798.92
2798.95
2798.98
2799.01
2799.04
2799.07
2799.1
2799.12
2799.14
2799.17
2799.19
2799.21
2799.23
2799.25
2799.27
2799.28
2799.3
2799.31
2799.33
2799.34
2799.36
2797.53
2797.62
2797.7
2797.78
2797.85
2797.92
2797.99
2798.06
2798.12
2798.18
2798.23
2798.29
2798.34
2798.39
2798.43
2798.48
2798.52
2798.56
2798.6
2798.63
2798.67
2798.7
2798.73
2798.76
2798.79
2798.82
2798.85
2798.87
2798.89
2798.92
2798.94
2798.96
2798.98
2799
2799.02
2799.03
2799.05
2799.07
2799.08
2799.1
2799.11
2799.12
2797.21
2797.29
2797.37
2797.44
2797.51
2797.58
2797.65
2797.71
2797.77
2797.83
2797.88
2797.93
2797.98
2798.03
2798.07
2798.12
2798.16
2798.2
2798.24
2798.27
2798.3
2798.34
2798.37
2798.4
2798.43
2798.45
2798.48
2798.5
2798.53
2798.55
2798.57
2798.59
2798.61
2798.63
2798.64
2798.66
2798.68
2798.69
2798.71
2798.72
2798.74
2798.75
2796.75
2796.83
2796.9
2796.98
2797.05
2797.12
2797.18
2797.25
2797.31
2797.36
2797.42
2797.47
2797.52
2797.57
2797.61
2797.66
2797.7
2797.74
2797.77
2797.81
2797.84
2797.88
2797.91
2797.94
2797.96
2797.99
2798.01
2798.04
2798.06
2798.08
2798.1
2798.12
2798.14
2798.16
2798.18
2798.19
2798.21
2798.22
2798.24
2798.25
2798.26
2798.28
2796.2
2796.28
2796.36
2796.43
2796.51
2796.57
2796.64
2796.7
2796.76
2796.82
2796.87
2796.93
2796.97
2797.02
2797.07
2797.11
2797.15
2797.19
2797.22
2797.26
2797.29
2797.32
2797.35
2797.38
2797.41
2797.43
2797.46
2797.48
2797.5
2797.52
2797.55
2797.56
2797.58
2797.6
2797.62
2797.63
2797.65
2797.66
2797.68
2797.69
2797.7
2797.71
2795.64
2795.72
2795.8
2795.87
2795.94
2796.01
2796.07
2796.13
2796.19
2796.24
2796.29
2796.34
2796.39
2796.43
2796.48
2796.52
2796.55
2796.59
2796.63
2796.66
2796.69
2796.72
2796.75
2796.78
2796.8
2796.83
2796.85
2796.88
2796.9
2796.92
2796.94
2796.96
2796.97
2796.99
2797.01
2797.02
2797.04
2797.05
2797.06
2797.08
2797.09
2797.1
2795.13
2795.21
2795.28
2795.35
2795.42
2795.48
2795.54
2795.59
2795.65
2795.7
2795.75
2795.79
2795.84
2795.88
2795.92
2795.96
2796
2796.03
2796.07
2796.1
2796.13
2796.16
2796.19
2796.22
2796.24
2796.27
2796.29
2796.31
2796.33
2796.35
2796.37
2796.39
2796.41
2796.43
2796.44
2796.46
2796.47
2796.49