/*--------------------------------*- C++ -*----------------------------------*\
| =========                 |                                                 |
| \\      /  F ield         | OpenFOAM: The Open Source CFD Toolbox           |
|  \\    /   O peration     | Version:  2412                                  |
|   \\  /    A nd           | Website:  www.openfoam.com                      |
|    \\/     M anipulation  |                                                 |
\*---------------------------------------------------------------------------*/
FoamFile
{
    version     2.0;
    format      ascii;
    arch        "LSB;label=32;scalar=64";
    class       volVectorField;
    location    "0.067";
    object      U;
}
// * * * * * * * * * * * * * * * * * * * * * * * * * * * * * * * * * * * * * //

dimensions      [0 1 -1 0 0 0 0];

internalField   nonuniform List<vector> 
9857
(
(209.812 -0.0552212 0)
(209.22 -0.185149 0)
(208.478 -0.508238 0)
(209.755 -0.0777523 0)
(209.16 -0.249556 0)
(208.526 -0.592243 0)
(208.291 -0.930584 0)
(208.365 -1.28843 0)
(208.758 -1.52773 0)
(209.319 -1.68678 0)
(209.885 -1.81072 0)
(210.403 -1.926 0)
(210.885 -2.01746 0)
(211.302 -2.09299 0)
(211.63 -2.15835 0)
(211.845 -2.22148 0)
(211.964 -2.28258 0)
(212.017 -2.33995 0)
(212.021 -2.38627 0)
(211.993 -2.41718 0)
(211.937 -2.42991 0)
(211.858 -2.42534 0)
(211.758 -2.40673 0)
(211.645 -2.37318 0)
(211.528 -2.32434 0)
(211.411 -2.2595 0)
(211.289 -2.18379 0)
(211.16 -2.09506 0)
(209.706 -0.113195 0)
(209.146 -0.323119 0)
(208.632 -0.694504 0)
(208.512 -1.05978 0)
(208.652 -1.40619 0)
(209.09 -1.63038 0)
(209.643 -1.78599 0)
(210.185 -1.91083 0)
(210.681 -2.0251 0)
(211.141 -2.11569 0)
(211.532 -2.18993 0)
(211.826 -2.25818 0)
(212.006 -2.32411 0)
(212.099 -2.38751 0)
(212.129 -2.44552 0)
(212.117 -2.49108 0)
(212.074 -2.52055 0)
(212.004 -2.53186 0)
(211.909 -2.52708 0)
(211.795 -2.50888 0)
(211.673 -2.47447 0)
(211.55 -2.4251 0)
(211.429 -2.35986 0)
(211.302 -2.28373 0)
(211.166 -2.19495 0)
(209.683 -0.162589 0)
(209.176 -0.405257 0)
(208.847 -0.808361 0)
(208.812 -1.21891 0)
(209.016 -1.549 0)
(209.473 -1.75785 0)
(210.006 -1.90703 0)
(210.521 -2.0328 0)
(210.995 -2.14692 0)
(211.426 -2.23728 0)
(211.784 -2.31137 0)
(212.04 -2.37934 0)
(212.189 -2.44526 0)
(212.255 -2.50914 0)
(212.263 -2.56751 0)
(212.231 -2.61285 0)
(212.171 -2.64134 0)
(212.087 -2.65177 0)
(211.98 -2.6474 0)
(211.856 -2.62778 0)
(211.723 -2.5942 0)
(211.59 -2.54411 0)
(211.459 -2.47951 0)
(211.325 -2.40191 0)
(211.178 -2.31444 0)
(209.681 -0.215635 0)
(209.33 -0.536005 0)
(209.173 -0.958082 0)
(209.189 -1.39256 0)
(209.45 -1.70373 0)
(209.91 -1.89542 0)
(210.419 -2.03468 0)
(210.905 -2.15905 0)
(211.355 -2.27071 0)
(211.753 -2.36078 0)
(212.067 -2.43852 0)
(212.276 -2.51005 0)
(212.388 -2.57875 0)
(212.426 -2.64444 0)
(212.409 -2.70361 0)
(212.354 -2.74921 0)
(212.271 -2.77795 0)
(212.164 -2.79065 0)
(212.043 -2.78396 0)
(211.907 -2.76609 0)
(211.766 -2.73139 0)
(211.629 -2.68066 0)
(211.493 -2.61598 0)
(211.35 -2.53819 0)
(211.192 -2.45196 0)
(209.812 -0.28261 0)
(209.612 -0.676668 0)
(209.538 -1.12166 0)
(209.588 -1.54993 0)
(209.883 -1.84284 0)
(210.336 -2.02413 0)
(210.819 -2.15768 0)
(211.274 -2.28066 0)
(211.693 -2.38935 0)
(212.053 -2.47968 0)
(212.325 -2.55927 0)
(212.493 -2.63366 0)
(212.571 -2.70594 0)
(212.581 -2.77458 0)
(212.544 -2.8352 0)
(212.475 -2.88093 0)
(212.379 -2.91152 0)
(212.263 -2.92179 0)
(212.125 -2.91853 0)
(211.973 -2.90212 0)
(211.821 -2.86859 0)
(211.676 -2.81862 0)
(211.531 -2.75394 0)
(211.379 -2.67662 0)
(211.209 -2.59143 0)
(210.125 -0.34551 0)
(209.91 -0.828035 0)
(209.888 -1.28277 0)
(209.974 -1.69414 0)
(210.297 -1.96588 0)
(210.739 -2.13937 0)
(211.196 -2.2681 0)
(211.622 -2.38628 0)
(212.007 -2.49015 0)
(212.326 -2.58062 0)
(212.556 -2.66209 0)
(212.689 -2.73974 0)
(212.739 -2.81716 0)
(212.722 -2.89246 0)
(212.659 -2.95957 0)
(212.568 -3.01047 0)
(212.457 -3.04302 0)
(212.332 -3.05341 0)
(212.187 -3.05299 0)
(212.031 -3.03706 0)
(211.875 -3.00441 0)
(211.721 -2.95557 0)
(211.568 -2.89175 0)
(211.407 -2.81564 0)
(211.227 -2.73177 0)
(210.588 -0.383034 0)
(210.231 -0.946981 0)
(210.24 -1.41939 0)
(210.361 -1.81406 0)
(210.692 -2.07364 0)
(211.118 -2.23918 0)
(211.548 -2.36073 0)
(211.943 -2.47085 0)
(212.293 -2.56998 0)
(212.57 -2.66188 0)
(212.758 -2.7476 0)
(212.861 -2.83016 0)
(212.889 -2.91264 0)
(212.86 -2.99273 0)
(212.787 -3.06484 0)
(212.68 -3.12378 0)
(212.555 -3.15878 0)
(212.412 -3.17883 0)
(212.254 -3.18422 0)
(212.093 -3.17017 0)
(211.933 -3.1388 0)
(211.774 -3.09099 0)
(211.611 -3.02878 0)
(211.438 -2.95457 0)
(211.246 -2.87242 0)
(211.027 -2.78576 0)
(211.156 -0.363429 0)
(210.592 -1.04754 0)
(210.598 -1.53233 0)
(210.744 -1.92015 0)
(211.077 -2.16585 0)
(211.479 -2.32365 0)
(211.876 -2.44104 0)
(212.239 -2.54488 0)
(212.551 -2.64061 0)
(212.788 -2.73368 0)
(212.938 -2.82453 0)
(213.008 -2.91539 0)
(213.01 -3.00719 0)
(212.962 -3.09482 0)
(212.878 -3.1729 0)
(212.765 -3.23576 0)
(212.635 -3.27283 0)
(212.482 -3.30125 0)
(212.317 -3.31164 0)
(212.15 -3.30074 0)
(211.986 -3.27171 0)
(211.823 -3.22509 0)
(211.654 -3.16462 0)
(211.47 -3.09262 0)
(211.266 -3.0128 0)
(211.035 -2.92817 0)
(211.815 -0.301208 0)
(211.011 -1.14355 0)
(210.974 -1.6351 0)
(211.123 -2.01828 0)
(211.446 -2.25991 0)
(211.822 -2.4143 0)
(212.188 -2.52528 0)
(212.519 -2.61977 0)
(212.796 -2.70904 0)
(212.996 -2.79884 0)
(213.117 -2.88933 0)
(213.164 -2.98358 0)
(213.149 -3.08215 0)
(213.085 -3.17902 0)
(212.986 -3.26923 0)
(212.862 -3.33765 0)
(212.721 -3.38308 0)
(212.561 -3.4197 0)
(212.389 -3.43483 0)
(212.215 -3.42791 0)
(212.045 -3.40232 0)
(211.876 -3.35779 0)
(211.698 -3.29951 0)
(211.503 -3.22979 0)
(211.286 -3.15241 0)
(211.042 -3.06995 0)
(210.767 -2.98683 0)
(212.554 -0.16501 0)
(211.495 -1.24035 0)
(211.377 -1.7396 0)
(211.508 -2.11656 0)
(211.814 -2.35089 0)
(212.166 -2.50385 0)
(212.502 -2.61344 0)
(212.799 -2.70467 0)
(213.036 -2.79285 0)
(213.196 -2.88334 0)
(213.281 -2.97573 0)
(213.301 -3.07275 0)
(213.268 -3.17404 0)
(213.193 -3.27465 0)
(213.084 -3.37119 0)
(212.951 -3.44109 0)
(212.802 -3.49594 0)
(212.634 -3.53848 0)
(212.457 -3.55712 0)
(212.279 -3.55348 0)
(212.103 -3.53095 0)
(211.928 -3.48897 0)
(211.742 -3.43332 0)
(211.538 -3.36609 0)
(211.309 -3.2913 0)
(211.052 -3.2113 0)
(210.763 -3.13104 0)
(213.382 0.0707849 0)
(212.019 -1.36711 0)
(211.786 -1.85862 0)
(211.895 -2.22034 0)
(212.185 -2.44813 0)
(212.514 -2.6049 0)
(212.82 -2.71886 0)
(213.083 -2.80992 0)
(213.285 -2.8945 0)
(213.411 -2.98049 0)
(213.467 -3.06972 0)
(213.461 -3.16642 0)
(213.408 -3.26891 0)
(213.319 -3.37314 0)
(213.198 -3.47427 0)
(213.056 -3.54374 0)
(212.895 -3.60927 0)
(212.717 -3.65605 0)
(212.532 -3.67834 0)
(212.348 -3.67791 0)
(212.167 -3.65802 0)
(211.983 -3.61878 0)
(211.787 -3.56609 0)
(211.571 -3.50155 0)
(211.33 -3.42924 0)
(211.06 -3.35165 0)
(210.759 -3.27424 0)
(210.426 -3.19871 0)
(214.321 0.389472 0)
(212.57 -1.49861 0)
(212.198 -1.97995 0)
(212.283 -2.32626 0)
(212.558 -2.55048 0)
(212.87 -2.71048 0)
(213.151 -2.829 0)
(213.379 -2.92357 0)
(213.543 -3.00918 0)
(213.636 -3.09373 0)
(213.661 -3.1811 0)
(213.629 -3.27694 0)
(213.552 -3.37921 0)
(213.447 -3.48597 0)
(213.316 -3.58634 0)
(213.16 -3.65672 0)
(212.987 -3.7281 0)
(212.799 -3.77588 0)
(212.607 -3.80051 0)
(212.417 -3.80242 0)
(212.231 -3.78442 0)
(212.04 -3.74763 0)
(211.834 -3.69783 0)
(211.606 -3.63618 0)
(211.353 -3.56643 0)
(211.07 -3.49133 0)
(210.756 -3.41672 0)
(210.412 -3.34421 0)
(215.34 0.802843 0)
(213.148 -1.63357 0)
(212.62 -2.10323 0)
(212.671 -2.43339 0)
(212.929 -2.6566 0)
(213.22 -2.82426 0)
(213.471 -2.95213 0)
(213.664 -3.05278 0)
(213.796 -3.14032 0)
(213.861 -3.22321 0)
(213.864 -3.30712 0)
(213.812 -3.39918 0)
(213.719 -3.4983 0)
(213.599 -3.60584 0)
(213.451 -3.70342 0)
(213.277 -3.77527 0)
(213.09 -3.84912 0)
(212.891 -3.89701 0)
(212.69 -3.92331 0)
(212.492 -3.92695 0)
(212.298 -3.91043 0)
(212.098 -3.87589 0)
(211.88 -3.82876 0)
(211.64 -3.76998 0)
(211.374 -3.70269 0)
(211.08 -3.62999 0)
(210.755 -3.5581 0)
(210.399 -3.48871 0)
(210.014 -3.42076 0)
(209.594 -3.35082 0)
(209.128 -3.28064 0)
(208.596 -3.216 0)
(207.982 -3.1663 0)
(207.278 -3.13918 0)
(206.484 -3.14169 0)
(205.616 -3.17624 0)
(204.694 -3.24266 0)
(203.749 -3.3331 0)
(202.805 -3.43378 0)
(201.883 -3.52743 0)
(200.996 -3.6016 0)
(200.149 -3.64992 0)
(199.342 -3.67083 0)
(198.57 -3.66537 0)
(197.823 -3.6363 0)
(197.093 -3.5875 0)
(196.371 -3.52335 0)
(195.652 -3.44792 0)
(194.932 -3.36443 0)
(194.21 -3.27539 0)
(193.482 -3.18299 0)
(192.746 -3.08949 0)
(192.002 -2.99697 0)
(191.246 -2.90718 0)
(190.477 -2.82156 0)
(189.694 -2.74156 0)
(188.894 -2.66869 0)
(188.074 -2.60465 0)
(187.234 -2.55099 0)
(186.371 -2.50904 0)
(216.436 1.30377 0)
(213.753 -1.77688 0)
(213.061 -2.23029 0)
(213.057 -2.53867 0)
(213.298 -2.75703 0)
(213.567 -2.92824 0)
(213.791 -3.0634 0)
(213.953 -3.17288 0)
(214.052 -3.26923 0)
(214.088 -3.35834 0)
(214.064 -3.44499 0)
(213.992 -3.53688 0)
(213.885 -3.63393 0)
(213.753 -3.7394 0)
(213.584 -3.83199 0)
(213.394 -3.90301 0)
(213.194 -3.97566 0)
(212.985 -4.02204 0)
(212.774 -4.04815 0)
(212.569 -4.05213 0)
(212.367 -4.03637 0)
(212.157 -4.0037 0)
(211.928 -3.959 0)
(211.676 -3.90303 0)
(211.397 -3.83818 0)
(211.09 -3.76786 0)
(210.753 -3.69844 0)
(210.386 -3.63195 0)
(209.988 -3.56747 0)
(209.553 -3.50228 0)
(209.067 -3.43851 0)
(208.511 -3.38198 0)
(207.872 -3.3415 0)
(207.143 -3.32372 0)
(206.33 -3.33439 0)
(205.45 -3.37498 0)
(204.526 -3.44488 0)
(203.583 -3.5366 0)
(202.647 -3.63726 0)
(201.734 -3.73033 0)
(200.856 -3.80366 0)
(200.017 -3.85106 0)
(199.217 -3.87146 0)
(198.45 -3.86644 0)
(197.705 -3.83911 0)
(196.976 -3.79326 0)
(196.254 -3.73295 0)
(195.536 -3.66196 0)
(194.818 -3.58343 0)
(194.097 -3.49993 0)
(193.372 -3.41373 0)
(192.639 -3.32711 0)
(191.897 -3.2421 0)
(191.144 -3.16042 0)
(190.379 -3.08348 0)
(189.6 -3.01285 0)
(188.804 -2.95025 0)
(187.99 -2.89734 0)
(187.155 -2.85544 0)
(186.299 -2.8258 0)
(217.597 1.89111 0)
(214.383 -1.92138 0)
(213.526 -2.3585 0)
(213.437 -2.63899 0)
(213.654 -2.85435 0)
(213.894 -3.03258 0)
(214.088 -3.17675 0)
(214.228 -3.2937 0)
(214.309 -3.39658 0)
(214.326 -3.49109 0)
(214.282 -3.58187 0)
(214.193 -3.67584 0)
(214.074 -3.77308 0)
(213.921 -3.8776 0)
(213.729 -3.96443 0)
(213.522 -4.03499 0)
(213.307 -4.10512 0)
(213.085 -4.14952 0)
(212.864 -4.17435 0)
(212.651 -4.17773 0)
(212.438 -4.16224 0)
(212.217 -4.13119 0)
(211.976 -4.08869 0)
(211.71 -4.03533 0)
(211.419 -3.97276 0)
(211.101 -3.90473 0)
(210.753 -3.83774 0)
(210.376 -3.77429 0)
(209.967 -3.71369 0)
(209.516 -3.65397 0)
(209.009 -3.59742 0)
(208.428 -3.54968 0)
(207.763 -3.51874 0)
(207.01 -3.51018 0)
(206.179 -3.52847 0)
(205.289 -3.57425 0)
(204.362 -3.64658 0)
(203.423 -3.73845 0)
(202.491 -3.83789 0)
(201.584 -3.92917 0)
(200.712 -4.00051 0)
(199.88 -4.04607 0)
(199.085 -4.06533 0)
(198.32 -4.06041 0)
(197.578 -4.03459 0)
(196.849 -3.99152 0)
(196.128 -3.93487 0)
(195.411 -3.86819 0)
(194.694 -3.79455 0)
(193.976 -3.71654 0)
(193.252 -3.63648 0)
(192.522 -3.55664 0)
(191.783 -3.47907 0)
(191.034 -3.40552 0)
(190.272 -3.33742 0)
(189.497 -3.27628 0)
(188.705 -3.22372 0)
(187.893 -3.18151 0)
(187.063 -3.15114 0)
(186.212 -3.13388 0)
(218.808 2.56276 0)
(215.034 -2.0637 0)
(214.01 -2.49744 0)
(213.812 -2.73426 0)
(213.999 -2.94426 0)
(214.21 -3.1281 0)
(214.378 -3.28429 0)
(214.494 -3.41489 0)
(214.556 -3.52909 0)
(214.555 -3.63142 0)
(214.494 -3.72867 0)
(214.394 -3.82231 0)
(214.256 -3.92259 0)
(214.081 -4.025 0)
(213.871 -4.10474 0)
(213.649 -4.17341 0)
(213.42 -4.23898 0)
(213.186 -4.28031 0)
(212.956 -4.30247 0)
(212.733 -4.30409 0)
(212.511 -4.28809 0)
(212.278 -4.25826 0)
(212.024 -4.21783 0)
(211.745 -4.16693 0)
(211.441 -4.10652 0)
(211.111 -4.04062 0)
(210.753 -3.9758 0)
(210.364 -3.91514 0)
(209.94 -3.85835 0)
(209.472 -3.80429 0)
(208.943 -3.75517 0)
(208.338 -3.71639 0)
(207.647 -3.69496 0)
(206.872 -3.69535 0)
(206.026 -3.72083 0)
(205.129 -3.77155 0)
(204.203 -3.84644 0)
(203.268 -3.93904 0)
(202.345 -4.03812 0)
(201.446 -4.12849 0)
(200.583 -4.19867 0)
(199.759 -4.24309 0)
(198.97 -4.26177 0)
(198.21 -4.25732 0)
(197.469 -4.2332 0)
(196.742 -4.19288 0)
(196.022 -4.13974 0)
(195.307 -4.07715 0)
(194.592 -4.00814 0)
(193.876 -3.93537 0)
(193.156 -3.86118 0)
(192.429 -3.78787 0)
(191.694 -3.71743 0)
(190.948 -3.65156 0)
(190.19 -3.59171 0)
(189.419 -3.53958 0)
(188.632 -3.49699 0)
(187.828 -3.46556 0)
(187.004 -3.44642 0)
(186.161 -3.44096 0)
(220.065 3.31281 0)
(215.696 -2.20824 0)
(214.518 -2.62611 0)
(214.193 -2.80946 0)
(214.34 -3.02062 0)
(214.527 -3.21073 0)
(214.674 -3.37969 0)
(214.772 -3.52701 0)
(214.815 -3.65623 0)
(214.796 -3.76886 0)
(214.723 -3.8724 0)
(214.611 -3.96798 0)
(214.449 -4.07093 0)
(214.25 -4.17225 0)
(214.022 -4.24659 0)
(213.783 -4.31415 0)
(213.538 -4.37477 0)
(213.29 -4.41273 0)
(213.05 -4.43162 0)
(212.818 -4.43096 0)
(212.585 -4.41399 0)
(212.339 -4.38501 0)
(212.072 -4.34642 0)
(211.78 -4.29778 0)
(211.464 -4.23936 0)
(211.122 -4.1755 0)
(210.754 -4.11287 0)
(210.355 -4.05525 0)
(209.918 -4.00287 0)
(209.432 -3.95518 0)
(208.88 -3.91414 0)
(208.249 -3.88484 0)
(207.533 -3.87296 0)
(206.738 -3.88186 0)
(205.878 -3.91372 0)
(204.974 -3.96832 0)
(204.048 -4.04466 0)
(203.117 -4.13688 0)
(202.198 -4.23446 0)
(201.306 -4.32285 0)
(200.45 -4.39092 0)
(199.631 -4.43356 0)
(198.848 -4.45131 0)
(198.09 -4.44717 0)
(197.351 -4.42463 0)
(196.625 -4.38693 0)
(195.907 -4.33718 0)
(195.193 -4.27858 0)
(194.481 -4.21417 0)
(193.768 -4.14659 0)
(193.051 -4.0782 0)
(192.327 -4.01133 0)
(191.595 -3.948 0)
(190.853 -3.88993 0)
(190.101 -3.83859 0)
(189.334 -3.79561 0)
(188.551 -3.76265 0)
(187.75 -3.7415 0)
(186.931 -3.73352 0)
(186.094 -3.73998 0)
(221.357 4.14156 0)
(216.371 -2.33246 0)
(215.04 -2.75974 0)
(214.571 -2.9022 0)
(214.662 -3.11997 0)
(214.828 -3.31221 0)
(214.961 -3.48773 0)
(215.043 -3.64714 0)
(215.067 -3.79008 0)
(215.03 -3.91396 0)
(214.942 -4.022 0)
(214.81 -4.12178 0)
(214.627 -4.22599 0)
(214.412 -4.32407 0)
(214.168 -4.39264 0)
(213.914 -4.4583 0)
(213.654 -4.51306 0)
(213.395 -4.54689 0)
(213.145 -4.56167 0)
(212.903 -4.55816 0)
(212.659 -4.53975 0)
(212.401 -4.51134 0)
(212.12 -4.47442 0)
(211.814 -4.42787 0)
(211.485 -4.37125 0)
(211.133 -4.30919 0)
(210.754 -4.24853 0)
(210.342 -4.19379 0)
(209.89 -4.14579 0)
(209.384 -4.10475 0)
(208.809 -4.07205 0)
(208.153 -4.05234 0)
(207.413 -4.0498 0)
(206.599 -4.06678 0)
(205.729 -4.10459 0)
(204.822 -4.16299 0)
(203.899 -4.24112 0)
(202.974 -4.33366 0)
(202.064 -4.43058 0)
(201.18 -4.51774 0)
(200.332 -4.58436 0)
(199.521 -4.62575 0)
(198.743 -4.64298 0)
(197.989 -4.63939 0)
(197.252 -4.61848 0)
(196.528 -4.58329 0)
(195.812 -4.53672 0)
(195.1 -4.4819 0)
(194.391 -4.42183 0)
(193.681 -4.35919 0)
(192.968 -4.29636 0)
(192.248 -4.23566 0)
(191.52 -4.17908 0)
(190.783 -4.12828 0)
(190.034 -4.0848 0)
(189.272 -4.05047 0)
(188.495 -4.02719 0)
(187.702 -4.01635 0)
(186.891 -4.01896 0)
(186.062 -4.03677 0)
(222.667 5.04413 0)
(217.044 -2.46274 0)
(215.587 -2.88371 0)
(214.966 -2.99137 0)
(214.988 -3.21181 0)
(215.136 -3.406 0)
(215.256 -3.58906 0)
(215.324 -3.75963 0)
(215.332 -3.91457 0)
(215.277 -4.05255 0)
(215.175 -4.16041 0)
(215.018 -4.27046 0)
(214.812 -4.37798 0)
(214.579 -4.47396 0)
(214.319 -4.53846 0)
(214.048 -4.60252 0)
(213.773 -4.65171 0)
(213.501 -4.68148 0)
(213.241 -4.69198 0)
(212.988 -4.68545 0)
(212.733 -4.66541 0)
(212.461 -4.6373 0)
(212.167 -4.6018 0)
(211.848 -4.5571 0)
(211.508 -4.50212 0)
(211.145 -4.44182 0)
(210.756 -4.38325 0)
(210.334 -4.33181 0)
(209.866 -4.28896 0)
(209.34 -4.2551 0)
(208.74 -4.23135 0)
(208.059 -4.22146 0)
(207.296 -4.22796 0)
(206.465 -4.25232 0)
(205.585 -4.29507 0)
(204.675 -4.35613 0)
(203.753 -4.43496 0)
(202.832 -4.52678 0)
(201.927 -4.62202 0)
(201.05 -4.70704 0)
(200.208 -4.77151 0)
(199.403 -4.81127 0)
(198.629 -4.82782 0)
(197.878 -4.82471 0)
(197.144 -4.80536 0)
(196.421 -4.77257 0)
(195.707 -4.7291 0)
(194.999 -4.678 0)
(194.292 -4.62225 0)
(193.586 -4.5645 0)
(192.875 -4.50717 0)
(192.16 -4.4526 0)
(191.436 -4.4028 0)
(190.703 -4.35946 0)
(189.96 -4.32416 0)
(189.203 -4.29862 0)
(188.43 -4.2845 0)
(187.641 -4.28349 0)
(186.837 -4.29689 0)
(186.015 -4.32622 0)
(224.008 6.01022 0)
(217.7 -2.61152 0)
(216.165 -2.95347 0)
(215.39 -3.05187 0)
(215.329 -3.28648 0)
(215.451 -3.49471 0)
(215.548 -3.69289 0)
(215.594 -3.87838 0)
(215.583 -4.04528 0)
(215.51 -4.19366 0)
(215.389 -4.30468 0)
(215.208 -4.4226 0)
(214.985 -4.53191 0)
(214.737 -4.62525 0)
(214.462 -4.68607 0)
(214.177 -4.74768 0)
(213.889 -4.79102 0)
(213.607 -4.81628 0)
(213.337 -4.82217 0)
(213.074 -4.8124 0)
(212.806 -4.79064 0)
(212.522 -4.76273 0)
(212.213 -4.7285 0)
(211.882 -4.68546 0)
(211.529 -4.63188 0)
(211.155 -4.57308 0)
(210.755 -4.51643 0)
(210.319 -4.46828 0)
(209.835 -4.43073 0)
(209.288 -4.4043 0)
(208.664 -4.38972 0)
(207.957 -4.38955 0)
(207.174 -4.40471 0)
(206.328 -4.43594 0)
(205.441 -4.48332 0)
(204.532 -4.54715 0)
(203.614 -4.62718 0)
(202.7 -4.71902 0)
(201.803 -4.81332 0)
(200.934 -4.8968 0)
(200.101 -4.95964 0)
(199.303 -4.99816 0)
(198.533 -5.01433 0)
(197.785 -5.01183 0)
(197.053 -4.99398 0)
(196.333 -4.96345 0)
(195.622 -4.92286 0)
(194.916 -4.87526 0)
(194.213 -4.82357 0)
(193.511 -4.77047 0)
(192.805 -4.71839 0)
(192.093 -4.66966 0)
(191.374 -4.62624 0)
(190.646 -4.58979 0)
(189.907 -4.56199 0)
(189.155 -4.54472 0)
(188.39 -4.5399 0)
(187.611 -4.54862 0)
(186.814 -4.57207 0)
(185.999 -4.61287 0)
(225.366 7.0606 0)
(218.403 -2.65128 0)
(216.7 -3.11375 0)
(215.791 -3.17904 0)
(215.648 -3.39427 0)
(215.754 -3.59633 0)
(215.838 -3.79592 0)
(215.869 -3.98916 0)
(215.839 -4.16728 0)
(215.75 -4.3209 0)
(215.608 -4.44128 0)
(215.405 -4.56824 0)
(215.164 -4.68061 0)
(214.899 -4.77295 0)
(214.606 -4.83189 0)
(214.306 -4.89138 0)
(214.004 -4.9296 0)
(213.712 -4.95052 0)
(213.432 -4.9519 0)
(213.158 -4.93888 0)
(212.878 -4.91539 0)
(212.581 -4.8876 0)
(212.259 -4.85444 0)
(211.915 -4.81281 0)
(211.552 -4.7605 0)
(211.168 -4.70322 0)
(210.758 -4.64877 0)
(210.309 -4.60445 0)
(209.808 -4.57285 0)
(209.238 -4.55453 0)
(208.589 -4.54949 0)
(207.858 -4.55891 0)
(207.054 -4.58215 0)
(206.196 -4.61934 0)
(205.303 -4.67026 0)
(204.392 -4.73577 0)
(203.477 -4.81599 0)
(202.567 -4.90689 0)
(201.676 -4.99937 0)
(200.814 -5.08061 0)
(199.987 -5.14135 0)
(199.194 -5.17845 0)
(198.428 -5.19418 0)
(197.683 -5.19226 0)
(196.954 -5.17587 0)
(196.237 -5.14751 0)
(195.528 -5.10976 0)
(194.826 -5.06561 0)
(194.126 -5.01796 0)
(193.427 -4.96949 0)
(192.725 -4.92263 0)
(192.018 -4.87974 0)
(191.303 -4.84276 0)
(190.58 -4.81341 0)
(189.847 -4.79345 0)
(189.101 -4.78459 0)
(188.34 -4.78838 0)
(187.565 -4.8066 0)
(186.776 -4.84097 0)
(185.967 -4.89131 0)
(226.715 8.16675 0)
(219.106 -2.74884 0)
(217.285 -3.21473 0)
(216.21 -3.29653 0)
(215.971 -3.48616 0)
(216.05 -3.69201 0)
(216.117 -3.89983 0)
(216.128 -4.10391 0)
(216.078 -4.2937 0)
(215.97 -4.45083 0)
(215.805 -4.58237 0)
(215.586 -4.71589 0)
(215.331 -4.82962 0)
(215.05 -4.92053 0)
(214.743 -4.97769 0)
(214.43 -5.03433 0)
(214.118 -5.06747 0)
(213.816 -5.08384 0)
(213.527 -5.08073 0)
(213.242 -5.06445 0)
(212.95 -5.03935 0)
(212.639 -5.01171 0)
(212.304 -4.97956 0)
(211.947 -4.93916 0)
(211.573 -4.88786 0)
(211.178 -4.83186 0)
(210.756 -4.77952 0)
(210.293 -4.73916 0)
(209.772 -4.71376 0)
(209.18 -4.7038 0)
(208.506 -4.70834 0)
(207.752 -4.72701 0)
(206.931 -4.75784 0)
(206.063 -4.80052 0)
(205.167 -4.85488 0)
(204.259 -4.92236 0)
(203.349 -5.00337 0)
(202.446 -5.09401 0)
(201.563 -5.18526 0)
(200.709 -5.26474 0)
(199.889 -5.32377 0)
(199.102 -5.35977 0)
(198.34 -5.37524 0)
(197.599 -5.37393 0)
(196.872 -5.35889 0)
(196.158 -5.33254 0)
(195.452 -5.29743 0)
(194.753 -5.2565 0)
(194.058 -5.21263 0)
(193.363 -5.16853 0)
(192.666 -5.12664 0)
(191.963 -5.08926 0)
(191.254 -5.05832 0)
(190.536 -5.03554 0)
(189.807 -5.02271 0)
(189.067 -5.02163 0)
(188.316 -5.03427 0)
(187.551 -5.06206 0)
(186.766 -5.10493 0)
(185.968 -5.1663 0)
(228.095 9.30913 0)
(219.686 -2.96151 0)
(217.954 -3.17255 0)
(216.685 -3.30795 0)
(216.315 -3.53568 0)
(216.349 -3.77234 0)
(216.396 -3.99431 0)
(216.389 -4.20777 0)
(216.32 -4.41083 0)
(216.196 -4.56731 0)
(216.008 -4.71583 0)
(215.769 -4.85722 0)
(215.5 -4.97356 0)
(215.203 -5.06433 0)
(214.879 -5.12097 0)
(214.552 -5.17517 0)
(214.229 -5.20392 0)
(213.918 -5.2159 0)
(213.619 -5.20853 0)
(213.324 -5.18908 0)
(213.019 -5.16247 0)
(212.695 -5.13496 0)
(212.348 -5.1037 0)
(211.98 -5.06435 0)
(211.595 -5.01398 0)
(211.191 -4.95936 0)
(210.758 -4.90954 0)
(210.28 -4.87379 0)
(209.74 -4.85528 0)
(209.124 -4.85419 0)
(208.425 -4.86841 0)
(207.649 -4.89589 0)
(206.812 -4.93352 0)
(205.934 -4.98065 0)
(205.036 -5.03739 0)
(204.128 -5.10584 0)
(203.22 -5.18671 0)
(202.322 -5.27625 0)
(201.445 -5.36556 0)
(200.598 -5.44277 0)
(199.784 -5.49986 0)
(199.001 -5.53467 0)
(198.243 -5.54988 0)
(197.505 -5.54915 0)
(196.782 -5.53541 0)
(196.07 -5.51104 0)
(195.368 -5.47853 0)
(194.673 -5.4408 0)
(193.981 -5.40072 0)
(193.29 -5.36099 0)
(192.597 -5.32407 0)
(191.9 -5.29223 0)
(191.195 -5.2674 0)
(190.482 -5.25136 0)
(189.76 -5.24593 0)
(189.027 -5.25282 0)
(188.279 -5.274 0)
(187.518 -5.31012 0)
(186.744 -5.36318 0)
(185.955 -5.43523 0)
(229.496 10.5377 0)
(220.377 -3.00939 0)
(218.483 -3.34019 0)
(217.15 -3.3995 0)
(216.651 -3.61369 0)
(216.633 -3.86379 0)
(216.657 -4.09653 0)
(216.632 -4.31895 0)
(216.544 -4.53216 0)
(216.402 -4.68911 0)
(216.194 -4.85121 0)
(215.939 -4.99842 0)
(215.656 -5.11725 0)
(215.345 -5.20751 0)
(215.009 -5.26321 0)
(214.671 -5.31431 0)
(214.339 -5.33876 0)
(214.019 -5.34634 0)
(213.711 -5.3349 0)
(213.405 -5.31245 0)
(213.088 -5.28452 0)
(212.751 -5.25723 0)
(212.39 -5.22683 0)
(212.011 -5.18838 0)
(211.615 -5.13872 0)
(211.2 -5.08532 0)
(210.754 -5.03803 0)
(210.259 -5.00695 0)
(209.699 -4.99575 0)
(209.06 -5.00373 0)
(208.337 -5.02746 0)
(207.541 -5.06326 0)
(206.69 -5.10715 0)
(205.807 -5.15839 0)
(204.908 -5.21759 0)
(204.004 -5.28744 0)
(203.102 -5.36879 0)
(202.211 -5.4578 0)
(201.342 -5.54563 0)
(200.502 -5.62096 0)
(199.695 -5.67641 0)
(198.917 -5.71026 0)
(198.163 -5.72529 0)
(197.428 -5.7251 0)
(196.708 -5.71255 0)
(196 -5.68998 0)
(195.302 -5.65987 0)
(194.611 -5.62511 0)
(193.923 -5.58856 0)
(193.237 -5.55295 0)
(192.549 -5.5207 0)
(191.856 -5.49405 0)
(191.157 -5.47495 0)
(190.449 -5.46519 0)
(189.732 -5.4664 0)
(189.005 -5.48079 0)
(188.268 -5.51026 0)
(187.517 -5.55458 0)
(186.75 -5.61722 0)
(185.969 -5.69919 0)
(230.885 11.8397 0)
(221.139 -2.98895 0)
(219.01 -3.5272 0)
(217.564 -3.55038 0)
(216.974 -3.69865 0)
(216.913 -3.94466 0)
(216.92 -4.18528 0)
(216.88 -4.41793 0)
(216.776 -4.63743 0)
(216.611 -4.80385 0)
(216.385 -4.97903 0)
(216.113 -5.1323 0)
(215.814 -5.25545 0)
(215.486 -5.34688 0)
(215.137 -5.40278 0)
(214.787 -5.45114 0)
(214.446 -5.47173 0)
(214.118 -5.4751 0)
(213.801 -5.45983 0)
(213.483 -5.43456 0)
(213.154 -5.40546 0)
(212.805 -5.37837 0)
(212.433 -5.34877 0)
(212.043 -5.3111 0)
(211.638 -5.26214 0)
(211.212 -5.21017 0)
(210.754 -5.16595 0)
(210.243 -5.14046 0)
(209.661 -5.13692 0)
(208.997 -5.15433 0)
(208.251 -5.18739 0)
(207.435 -5.23086 0)
(206.573 -5.28009 0)
(205.684 -5.33437 0)
(204.784 -5.39504 0)
(203.881 -5.46538 0)
(202.983 -5.54637 0)
(202.097 -5.63414 0)
(201.233 -5.71996 0)
(200.4 -5.7931 0)
(199.598 -5.84679 0)
(198.824 -5.87967 0)
(198.074 -5.89452 0)
(197.342 -5.89485 0)
(196.626 -5.88347 0)
(195.922 -5.86269 0)
(195.227 -5.83497 0)
(194.54 -5.80318 0)
(193.857 -5.77018 0)
(193.175 -5.73869 0)
(192.491 -5.71114 0)
(191.803 -5.68974 0)
(191.109 -5.6764 0)
(190.407 -5.67295 0)
(189.697 -5.6813 0)
(188.978 -5.70359 0)
(188.243 -5.73958 0)
(187.5 -5.79337 0)
(186.743 -5.86558 0)
(185.972 -5.95748 0)
(232.269 13.1637 0)
(221.841 -3.10708 0)
(219.624 -3.55043 0)
(217.997 -3.65137 0)
(217.292 -3.77067 0)
(217.18 -4.02681 0)
(217.168 -4.28033 0)
(217.109 -4.52631 0)
(216.989 -4.74783 0)
(216.804 -4.92398 0)
(216.561 -5.10911 0)
(216.274 -5.26621 0)
(215.961 -5.39268 0)
(215.619 -5.48468 0)
(215.258 -5.54047 0)
(214.9 -5.58577 0)
(214.55 -5.6026 0)
(214.215 -5.60184 0)
(213.888 -5.58297 0)
(213.561 -5.55516 0)
(213.219 -5.52513 0)
(212.857 -5.49837 0)
(212.472 -5.46954 0)
(212.071 -5.43251 0)
(211.656 -5.38411 0)
(211.22 -5.33349 0)
(210.747 -5.29245 0)
(210.218 -5.27272 0)
(209.615 -5.27725 0)
(208.927 -5.30407 0)
(208.158 -5.34608 0)
(207.326 -5.39667 0)
(206.455 -5.45074 0)
(205.563 -5.5079 0)
(204.665 -5.57029 0)
(203.767 -5.64161 0)
(202.874 -5.7228 0)
(201.995 -5.80978 0)
(201.139 -5.89396 0)
(200.312 -5.96522 0)
(199.516 -6.01741 0)
(198.747 -6.04943 0)
(198 -6.06412 0)
(197.272 -6.0649 0)
(196.56 -6.05456 0)
(195.86 -6.03539 0)
(195.17 -6.00986 0)
(194.487 -5.98081 0)
(193.808 -5.95111 0)
(193.13 -5.92347 0)
(192.451 -5.90029 0)
(191.769 -5.88376 0)
(191.081 -5.87585 0)
(190.386 -5.87826 0)
(189.681 -5.89329 0)
(188.967 -5.92141 0)
(188.245 -5.96621 0)
(187.51 -6.02803 0)
(186.761 -6.10879 0)
(185.999 -6.20984 0)
(233.673 14.5204 0)
(222.486 -3.24499 0)
(220.271 -3.54991 0)
(218.459 -3.69945 0)
(217.618 -3.82226 0)
(217.447 -4.09512 0)
(217.417 -4.36228 0)
(217.346 -4.62263 0)
(217.207 -4.84738 0)
(217.001 -5.03823 0)
(216.741 -5.23282 0)
(216.438 -5.39389 0)
(216.109 -5.52483 0)
(215.751 -5.61868 0)
(215.378 -5.67533 0)
(215.01 -5.71796 0)
(214.653 -5.73136 0)
(214.309 -5.72665 0)
(213.974 -5.70442 0)
(213.635 -5.67429 0)
(213.283 -5.64348 0)
(212.908 -5.61703 0)
(212.513 -5.58893 0)
(212.102 -5.55247 0)
(211.678 -5.50472 0)
(211.231 -5.45581 0)
(210.744 -5.41856 0)
(210.197 -5.40523 0)
(209.57 -5.41839 0)
(208.858 -5.45469 0)
(208.068 -5.50522 0)
(207.221 -5.56211 0)
(206.34 -5.62002 0)
(205.446 -5.67907 0)
(204.548 -5.74228 0)
(203.652 -5.81378 0)
(202.763 -5.89444 0)
(201.889 -5.98006 0)
(201.039 -6.06224 0)
(200.218 -6.13146 0)
(199.427 -6.1821 0)
(198.661 -6.21328 0)
(197.919 -6.2278 0)
(197.194 -6.22902 0)
(196.486 -6.21971 0)
(195.79 -6.20218 0)
(195.104 -6.17885 0)
(194.425 -6.15255 0)
(193.75 -6.12616 0)
(193.077 -6.1024 0)
(192.403 -6.08365 0)
(191.726 -6.07205 0)
(191.043 -6.06944 0)
(190.353 -6.07804 0)
(189.656 -6.09935 0)
(188.95 -6.135 0)
(188.233 -6.18708 0)
(187.505 -6.25707 0)
(186.767 -6.34674 0)
(186.017 -6.45707 0)
(235.086 15.9342 0)
(223.157 -3.3402 0)
(220.873 -3.6216 0)
(218.926 -3.75356 0)
(217.942 -3.87928 0)
(217.702 -4.17059 0)
(217.65 -4.45221 0)
(217.562 -4.72875 0)
(217.41 -4.95086 0)
(217.183 -5.15709 0)
(216.907 -5.35905 0)
(216.59 -5.52251 0)
(216.248 -5.65622 0)
(215.877 -5.75077 0)
(215.494 -5.80782 0)
(215.117 -5.8477 0)
(214.753 -5.85783 0)
(214.402 -5.84929 0)
(214.058 -5.82393 0)
(213.709 -5.79179 0)
(213.344 -5.76043 0)
(212.957 -5.73442 0)
(212.55 -5.70702 0)
(212.129 -5.67103 0)
(211.694 -5.62383 0)
(211.236 -5.57666 0)
(210.735 -5.54341 0)
(210.167 -5.53681 0)
(209.518 -5.55876 0)
(208.782 -5.60436 0)
(207.973 -5.66287 0)
(207.113 -5.72547 0)
(206.227 -5.78686 0)
(205.332 -5.84784 0)
(204.438 -5.91224 0)
(203.546 -5.98441 0)
(202.663 -6.06499 0)
(201.796 -6.14961 0)
(200.953 -6.23009 0)
(200.138 -6.29752 0)
(199.352 -6.34678 0)
(198.591 -6.37718 0)
(197.852 -6.39149 0)
(197.132 -6.39306 0)
(196.427 -6.38467 0)
(195.736 -6.36859 0)
(195.054 -6.34725 0)
(194.38 -6.32348 0)
(193.71 -6.30016 0)
(193.041 -6.28 0)
(192.372 -6.26531 0)
(191.7 -6.25827 0)
(191.024 -6.2608 0)
(190.341 -6.27508 0)
(189.65 -6.30167 0)
(188.952 -6.34425 0)
(188.244 -6.40365 0)
(187.526 -6.48121 0)
(186.796 -6.57888 0)
(186.057 -6.69776 0)
(236.501 17.4046 0)
(223.854 -3.41654 0)
(221.451 -3.71415 0)
(219.385 -3.81934 0)
(218.268 -3.929 0)
(217.959 -4.23172 0)
(217.885 -4.52699 0)
(217.784 -4.81917 0)
(217.615 -5.04613 0)
(217.369 -5.26845 0)
(217.077 -5.47875 0)
(216.745 -5.64643 0)
(216.387 -5.78391 0)
(216.002 -5.87975 0)
(215.607 -5.93761 0)
(215.222 -5.97499 0)
(214.851 -5.98211 0)
(214.492 -5.96993 0)
(214.139 -5.94167 0)
(213.78 -5.90772 0)
(213.404 -5.87592 0)
(213.006 -5.85034 0)
(212.589 -5.82358 0)
(212.159 -5.78805 0)
(211.715 -5.74162 0)
(211.245 -5.69663 0)
(210.728 -5.66803 0)
(210.14 -5.66881 0)
(209.467 -5.69993 0)
(208.708 -5.75464 0)
(207.88 -5.82047 0)
(207.009 -5.88784 0)
(206.117 -5.95172 0)
(205.222 -6.01375 0)
(204.328 -6.07856 0)
(203.439 -6.15069 0)
(202.56 -6.2306 0)
(201.699 -6.31379 0)
(200.861 -6.39234 0)
(200.051 -6.45792 0)
(199.269 -6.50579 0)
(198.512 -6.53541 0)
(197.777 -6.54953 0)
(197.061 -6.55147 0)
(196.361 -6.544 0)
(195.674 -6.52941 0)
(194.996 -6.5101 0)
(194.326 -6.48887 0)
(193.661 -6.46864 0)
(192.997 -6.4521 0)
(192.333 -6.44161 0)
(191.666 -6.43906 0)
(190.994 -6.44685 0)
(190.317 -6.46613 0)
(189.635 -6.49943 0)
(188.944 -6.54869 0)
(188.243 -6.61515 0)
(187.534 -6.70045 0)
(186.815 -6.80631 0)
(186.088 -6.9338 0)
(237.909 18.9207 0)
(224.572 -3.48143 0)
(222.021 -3.8001 0)
(219.832 -3.90155 0)
(218.587 -3.99492 0)
(218.202 -4.30422 0)
(218.103 -4.61216 0)
(217.988 -4.91366 0)
(217.802 -5.14782 0)
(217.542 -5.38277 0)
(217.234 -5.5997 0)
(216.889 -5.77109 0)
(216.519 -5.91114 0)
(216.122 -6.00707 0)
(215.718 -6.06509 0)
(215.325 -6.09985 0)
(214.947 -6.10406 0)
(214.581 -6.08841 0)
(214.219 -6.0575 0)
(213.849 -6.022 0)
(213.461 -5.98999 0)
(213.052 -5.96492 0)
(212.624 -5.93878 0)
(212.184 -5.90362 0)
(211.73 -5.85792 0)
(211.247 -5.81525 0)
(210.713 -5.79142 0)
(210.105 -5.79996 0)
(209.409 -5.8403 0)
(208.628 -5.90378 0)
(207.784 -5.97632 0)
(206.904 -6.04791 0)
(206.01 -6.11407 0)
(205.116 -6.17735 0)
(204.226 -6.24299 0)
(203.342 -6.31554 0)
(202.469 -6.39515 0)
(201.614 -6.4772 0)
(200.783 -6.55407 0)
(199.978 -6.61798 0)
(199.201 -6.66458 0)
(198.448 -6.69343 0)
(197.717 -6.7073 0)
(197.005 -6.7095 0)
(196.309 -6.70283 0)
(195.626 -6.68956 0)
(194.954 -6.67206 0)
(194.288 -6.65316 0)
(193.627 -6.63579 0)
(192.968 -6.6226 0)
(192.309 -6.61585 0)
(191.648 -6.61762 0)
(190.984 -6.63026 0)
(190.314 -6.65444 0)
(189.638 -6.69335 0)
(188.955 -6.74872 0)
(188.263 -6.82176 0)
(187.564 -6.91408 0)
(186.856 -7.02736 0)
(186.138 -7.16291 0)
(185.409 -7.32281 0)
(184.669 -7.50838 0)
(183.917 -7.72108 0)
(183.155 -7.96205 0)
(182.385 -8.23229 0)