/*--------------------------------*- C++ -*----------------------------------*\
| =========                 |                                                 |
| \\      /  F ield         | OpenFOAM: The Open Source CFD Toolbox           |
|  \\    /   O peration     | Version:  2406                                  |
|   \\  /    A nd           | Website:  www.openfoam.com                      |
|    \\/     M anipulation  |                                                 |
\*---------------------------------------------------------------------------*/
FoamFile
{
    version     2.0;
    format      ascii;
    arch        "LSB;label=32;scalar=64";
    class       volScalarField;
    location    "0.013";
    object      p;
}
// * * * * * * * * * * * * * * * * * * * * * * * * * * * * * * * * * * * * * //

dimensions      [1 -1 -2 0 0 0 0];

internalField   nonuniform List<scalar> 
78650
(
2790
2790
2790
2790
2790
2790
2790
2790
2790
2790
2790
2790.09
2792.22
2807.32
2843.54
2878.2
2890.91
2894.76
2890.86
2878.8
2864.96
2853.19
2843.11
2833.98
2825.47
2817.54
2809.97
2802.53
2795.18
2788
2781.11
2774.6
2768.53
2762.81
2757.25
2752.04
2748.45
2747.46
2749.67
2756.34
2761.99
2763.61
2763.17
2761.28
2758.76
2756.43
2754.26
2752.14
2749.99
2747.72
2745.33
2742.83
2740.23
2737.46
2734.46
2731.16
2727.54
2723.62
2719.34
2714.63
2709.43
2703.63
2697.13
2689.84
2681.69
2672.66
2662.7
2651.75
2639.73
2626.55
2612.1
2596.31
2579.17
2560.56
2540.38
2518.5
2494.87
2469.6
2442.78
2414.36
2384.32
2352.61
2319.23
2284.25
2247.72
2209.91
2171.11
2131.16
2090.44
2048.58
2006.62
1964.85
1923.23
1881.59
1840.86
1799.98
1761.67
1723.78
1687.18
1653.66
1620.51
1589.59
1559.43
1530.29
1503.22
1477.44
1453.76
1431.79
1411.74
1393.14
1375.59
1359.08
1343.59
1328.76
1315.59
1303.65
1292.49
1281.77
1272.01
1263.32
1246.89
2790
2790
2790
2790
2790
2790
2790
2790
2790
2790
2790
2790.04
2791.3
2802.56
2835.89
2873.98
2891.26
2896.78
2894.05
2883.42
2869.39
2857.48
2847.52
2838.6
2830.26
2822.38
2814.74
2807.22
2799.83
2792.68
2785.87
2779.5
2773.62
2768.14
2762.86
2757.81
2754.08
2752.83
2754.55
2761.14
2767.87
2770.34
2770.3
2769.04
2766.91
2764.84
2762.98
2761.24
2759.51
2757.69
2755.77
2753.76
2751.68
2749.49
2747.11
2744.47
2741.56
2738.37
2734.88
2731.04
2726.75
2721.94
2716.51
2710.37
2703.44
2695.7
2687.1
2677.6
2667.13
2655.59
2642.89
2628.97
2613.71
2596.98
2578.74
2558.97
2537.66
2514.82
2490.34
2464.06
2435.98
2406.04
2374.25
2340.69
2305.48
2268.85
2230.99
2192.19
2152.39
2111.47
2070.01
2027.65
1985.82
1943.4
1902.59
1861.19
1821.03
1782.88
1744.62
1708.73
1674.05
1641.27
1610.57
1580.58
1552.49
1524.94
1498.81
1473.98
1450.87
1428.93
1408.89
1389.54
1371.04
1353.76
1337.43
1322.6
1309.21
1296.75
1285.62
1275.82
1257.25
2790
2790
2790
2790
2790
2790
2790
2790
2790
2790
2790
2790.02
2790.71
2798.64
2827.95
2868.4
2891.09
2898.68
2896.66
2887.84
2873.98
2861.95
2852.06
2843.32
2835.13
2827.25
2819.51
2811.89
2804.48
2797.38
2790.69
2784.48
2778.8
2773.57
2768.55
2763.71
2759.89
2758.4
2759.69
2766.01
2773.75
2777.25
2777.61
2776.78
2775.05
2773.31
2771.8
2770.44
2769.12
2767.75
2766.29
2764.78
2763.22
2761.6
2759.83
2757.84
2755.61
2753.14
2750.43
2747.41
2744
2740.14
2735.73
2730.67
2724.89
2718.37
2711.07
2702.93
2693.91
2683.91
2672.83
2660.6
2647.1
2632.25
2616.03
2598.42
2579.29
2558.57
2536.12
2511.85
2485.83
2458.06
2428.54
2397.29
2364.33
2329.8
2293.78
2256.52
2218.07
2178.65
2138.15
2096.47
2054.47
2011.33
1968.66
1926.65
1884.72
1845.24
1805.36
1766.55
1728.85
1691.18
1656.85
1623.94
1593.45
1564.58
1537.28
1511.24
1487.25
1464.05
1442.19
1421.42
1401.88
1383.33
1366.25
1350.05
1334.76
1320.2
1306.85
1294.81
1271.45
2790
2790
2790
2790
2790
2790
2790
2790
2790
2790
2790
2790.01
2790.36
2795.54
2819.9
2861.26
2889.97
2900.21
2898.9
2892.3
2879
2866.8
2856.94
2848.33
2840.18
2832.2
2824.32
2816.65
2809.26
2802.25
2795.71
2789.7
2784.22
2779.2
2774.44
2769.79
2765.88
2764.11
2764.89
2770.67
2779.36
2784.1
2784.94
2784.47
2783.19
2781.83
2780.69
2779.69
2778.74
2777.79
2776.8
2775.77
2774.72
2773.64
2772.46
2771.09
2769.52
2767.75
2765.78
2763.55
2761
2758.05
2754.63
2750.64
2746
2740.69
2734.66
2727.89
2720.33
2711.87
2702.44
2691.94
2680.3
2667.4
2653.23
2637.67
2620.61
2602
2581.72
2559.76
2536.18
2510.93
2483.94
2455.18
2424.65
2392.33
2358.36
2323
2286.3
2248.46
2209.37
2169.23
2127.75
2085.84
2042.91
2000.55
1957.13
1914.62
1873
1831.34
1792.39
1752.49
1714.83
1678.62
1643.54
1610.95
1579.62
1550.45
1523.74
1498.17
1474.07
1451.19
1430.13
1410.88
1393.43
1377.16
1361.92
1347.43
1334.13
1322.13
1300.26
2790
2790
2790
2790
2790
2790
2790
2790
2790
2790
2790
2790
2790.17
2793.28
2812.27
2852.69
2887.13
2901.12
2901.03
2896.67
2884.22
2871.92
2862.09
2853.53
2845.3
2837.16
2829.16
2821.46
2814.14
2807.27
2800.92
2795.11
2789.83
2785.02
2780.48
2776.02
2772.08
2770.01
2770.32
2775.36
2784.87
2791.07
2792.52
2792.31
2791.49
2790.53
2789.74
2789.08
2788.51
2787.99
2787.46
2786.91
2786.36
2785.81
2785.2
2784.45
2783.53
2782.44
2781.19
2779.73
2778
2775.93
2773.46
2770.48
2766.93
2762.77
2757.95
2752.47
2746.27
2739.26
2731.36
2722.49
2712.57
2701.5
2689.21
2675.62
2660.64
2644.24
2626.31
2606.81
2585.75
2562.99
2538.46
2512.14
2483.98
2453.91
2422.04
2388.58
2353.58
2317.24
2279.32
2240.22
2200.15
2159.09
2117.26
2074.82
2031.66
1988.15
1946.51
1904.11
1863.41
1822.72
1782.99
1745.48
1708.09
1672.61
1637.53
1603.35
1571.78
1541.52
1513.14
1486.16
1461.04
1437.78
1416.01
1395.84
1377
1360
1344.85
1332.04
1305.03
2790
2790
2790
2790
2790
2790
2790
2790
2790
2790
2790
2790
2790.07
2791.76
2805.44
2842.78
2882.22
2901.42
2903.4
2900.59
2889.64
2877.54
2867.67
2858.91
2850.46
2842.17
2834.13
2826.48
2819.29
2812.6
2806.45
2800.83
2795.73
2791.08
2786.73
2782.44
2778.48
2776.07
2775.9
2780.07
2790.05
2797.83
2800.21
2800.29
2799.87
2799.28
2798.84
2798.56
2798.39
2798.29
2798.22
2798.13
2798.05
2798.01
2797.95
2797.79
2797.5
2797.07
2796.51
2795.79
2794.85
2793.63
2792.08
2790.09
2787.6
2784.57
2780.95
2776.74
2771.9
2766.34
2759.99
2752.77
2744.59
2735.35
2725.01
2713.45
2700.61
2686.45
2670.81
2653.63
2634.88
2614.4
2592.17
2568.21
2542.4
2514.66
2485.1
2453.86
2420.92
2386.34
2350.05
2312.47
2273.6
2233.61
2192.43
2149.79
2107.14
2063.55
2020.76
1977.72
1935.48
1894.42
1853.26
1813.83
1775.03
1738.3
1703.36
1668.31
1635.06
1602.69
1572.69
1544.51
1517.61
1491.26
1466.48
1442.26
1418.83
1396.78
1377.07
1359.68
1327.18
2790
2790
2790
2790
2790
2790
2790
2790
2790
2790
2790
2790
2790.02
2790.84
2799.83
2832.1
2875.29
2900.71
2905.5
2904.04
2895.37
2883.62
2873.43
2864.26
2855.57
2847.22
2839.21
2831.68
2824.65
2818.15
2812.21
2806.77
2801.82
2797.3
2793.09
2788.96
2785.02
2782.31
2781.69
2784.93
2794.95
2804.41
2808.12
2808.63
2808.46
2808.18
2808.11
2808.24
2808.47
2808.78
2809.14
2809.49
2809.89
2810.35
2810.83
2811.25
2811.57
2811.79
2811.9
2811.9
2811.72
2811.32
2810.65
2809.61
2808.13
2806.18
2803.69
2800.68
2797.11
2792.91
2788
2782.31
2775.74
2768.23
2759.7
2750.07
2739.26
2727.21
2713.79
2698.93
2682.6
2664.66
2645.09
2623.87
2600.83
2575.92
2549.18
2520.58
2490.09
2457.79
2423.75
2388.26
2351.11
2312.59
2272.59
2231.46
2188.99
2145.66
2101.23
2057
2012.61
1969.66
1925.35
1882.29
1840.31
1800.32
1762.89
1725.58
1689.23
1654.36
1621.81
1592.12
1564.18
1536.92
1511.87
1487.87
1465.87
1445.03
1425.62
1407.9
1375.83
2790
2790
2790
2790
2790
2790
2790
2790
2790
2790
2790
2790
2790.01
2790.35
2795.64
2821.38
2865.86
2898.41
2906.89
2907.51
2901.33
2889.96
2879.12
2869.53
2860.76
2852.48
2844.58
2837.18
2830.33
2824.04
2818.27
2812.99
2808.14
2803.7
2799.56
2795.55
2791.65
2788.68
2787.65
2789.94
2799.56
2810.62
2816
2817.19
2817.21
2817.18
2817.46
2817.99
2818.61
2819.33
2820.11
2820.92
2821.78
2822.72
2823.72
2824.7
2825.61
2826.44
2827.19
2827.87
2828.44
2828.82
2828.98
2828.86
2828.37
2827.48
2826.1
2824.27
2821.96
2819.09
2815.62
2811.46
2806.52
2800.74
2794.05
2786.34
2777.57
2767.65
2756.46
2743.95
2730.04
2714.57
2697.52
2678.83
2658.37
2636.13
2612.1
2586.17
2558.39
2528.87
2497.56
2464.52
2429.64
2393.33
2355.46
2316.31
2275.69
2233.75
2190.83
2147.36
2103.24
2059.51
2014.57
1969.46
1925.37
1882.01
1841.16
1800.19
1759.51
1719.86
1681.29
1645.96
1612.5
1579.7
1548.4
1519.07
1492.99
1469.71
1448.78
1430.77
1391.46
2790
2790
2790
2790
2790
2790
2790
2790
2790
2790
2790
2790
2790
2790.13
2792.88
2811.51
2854.35
2893.72
2907.46
2910.83
2906.95
2896.23
2884.72
2874.86
2866.12
2857.94
2850.17
2842.92
2836.25
2830.14
2824.52
2819.34
2814.55
2810.13
2806.04
2802.12
2798.29
2795.14
2793.76
2795.21
2803.95
2816.41
2823.76
2825.96
2826.29
2826.45
2826.99
2827.89
2828.92
2830.04
2831.23
2832.47
2833.78
2835.19
2836.69
2838.21
2839.69
2841.12
2842.5
2843.85
2845.12
2846.27
2847.23
2847.96
2848.39
2848.51
2848.2
2847.5
2846.37
2844.74
2842.62
2839.87
2836.42
2832.25
2827.26
2821.36
2814.51
2806.62
2797.58
2787.33
2775.78
2762.79
2748.35
2732.37
2714.76
2695.49
2674.44
2651.46
2626.59
2599.87
2571.18
2540.56
2508.01
2473.81
2437.8
2400.26
2361.04
2320.57
2278.8
2235.88
2192.49
2148.25
2104.55
2059.99
2016.45
1972.24
1930.19
1888.91
1848.56
1808.43
1768.11
1729.52
1693.66
1658.94
1625.67
1591.53
1559.83
1530.35
1503.63
1479.17
1431.04
2790
2790
2790
2790
2790
2790
2790
2790
2790
2790
2790
2790
2790
2790.04
2791.29
2803.34
2841.27
2886.27
2907.51
2914
2911.46
2902.27
2890.51
2880.5
2871.77
2863.66
2856.03
2848.95
2842.47
2836.51
2830.97
2825.81
2821
2816.57
2812.48
2808.63
2804.91
2801.67
2800.01
2800.73
2808.25
2821.79
2831.3
2834.78
2835.54
2835.89
2836.64
2837.86
2839.26
2840.76
2842.36
2844.02
2845.76
2847.62
2849.6
2851.64
2853.67
2855.66
2857.64
2859.61
2861.56
2863.43
2865.18
2866.76
2868.09
2869.12
2869.84
2870.2
2870.27
2869.85
2869.06
2867.73
2865.76
2863.19
2859.88
2855.78
2850.83
2844.94
2838.02
2830.01
2820.79
2810.25
2798.37
2785.02
2770.1
2753.56
2735.26
2715.07
2693.06
2669.23
2643.43
2615.66
2585.92
2554.35
2520.89
2485.69
2448.55
2409.81
2369.28
2327.38
2284.17
2240.12
2195.29
2150.03
2104.33
2056.69
2010.09
1965.67
1922.57
1880.58
1838.72
1797.55
1759.48
1724.03
1691.63
1657.54
1625.99
1596.18
1569.02
1545.66
1503.32
2790
2790
2790
2790
2790
2790
2790
2790
2790
2790
2790
2790
2790
2790.01
2790.5
2797.37
2827.83
2875.87
2906.25
2916.36
2914.98
2908.16
2896.69
2886.43
2877.55
2869.54
2862.11
2855.21
2848.85
2842.94
2837.39
2832.18
2827.33
2822.87
2818.79
2815.03
2811.45
2808.24
2806.36
2806.51
2812.63
2826.77
2838.54
2843.59
2844.96
2845.54
2846.47
2847.95
2849.7
2851.56
2853.55
2855.62
2857.79
2860.08
2862.51
2865.04
2867.59
2870.13
2872.67
2875.25
2877.84
2880.41
2882.9
2885.27
2887.46
2889.42
2891.11
2892.48
2893.57
2894.33
2894.71
2894.74
2894.14
2893.07
2891.34
2888.88
2885.71
2881.69
2876.78
2870.9
2863.95
2855.83
2846.47
2835.75
2823.57
2809.87
2794.52
2777.43
2758.65
2738.06
2715.56
2691.13
2664.76
2636.46
2606.19
2574.01
2539.8
2503.86
2466.1
2426.87
2385.97
2343.76
2300.45
2256.25
2210.76
2164.28
2116.41
2070
2023.73
1978.72
1932.59
1886.17
1841.12
1797.65
1757.2
1718.94
1681.22
1644.72
1609.66
1579.96
1522.14
2790
2790
2790
2790
2790
2790
2790
2790
2790
2790
2790
2790
2790
2790
2790.17
2793.57
2815.48
2862.69
2902.29
2917.47
2918.05
2913.98
2903.13
2892.42
2883.46
2875.69
2868.49
2861.67
2855.28
2849.29
2843.65
2838.39
2833.52
2829.06
2825.03
2821.38
2817.97
2814.88
2812.84
2812.55
2817.28
2831.42
2845.4
2852.32
2854.48
2855.34
2856.4
2858.08
2860.12
2862.32
2864.67
2867.15
2869.72
2872.41
2875.26
2878.24
2881.28
2884.34
2887.42
2890.57
2893.77
2896.98
2900.18
2903.31
2906.32
2909.15
2911.75
2914.12
2916.25
2918.12
2919.67
2920.88
2921.68
2922.02
2921.87
2921.06
2919.64
2917.47
2914.52
2910.7
2905.92
2900.1
2893.15
2884.94
2875.4
2864.46
2852.02
2838.02
2822.4
2805.01
2785.78
2764.68
2741.58
2716.45
2689.26
2660.08
2628.83
2595.7
2560.55
2523.61
2484.71
2444.24
2402.18
2358.93
2314.78
2269.81
2224.27
2177.65
2131.43
2085.89
2041.48
1996.03
1950.97
1905.81
1862.87
1822.66
1784.34
1746.13
1708.26
1672.35
1604.16
2790
2790
2790
2790
2790
2790
2790
2790
2790
2790
2790
2790
2790
2790
2790.05
2791.51
2805.46
2847.71
2894.71
2917.21
2921.45
2918.94
2909.29
2898.48
2889.63
2882.1
2874.92
2867.96
2861.43
2855.35
2849.67
2844.4
2839.57
2835.16
2831.21
2827.67
2824.45
2821.53
2819.43
2818.83
2822.26
2835.78
2851.78
2860.84
2864.04
2865.23
2866.41
2868.23
2870.54
2873.05
2875.75
2878.62
2881.59
2884.67
2887.91
2891.31
2894.8
2898.35
2901.94
2905.62
2909.39
2913.22
2917.08
2920.93
2924.71
2928.37
2931.85
2935.13
2938.22
2941.11
2943.78
2946.17
2948.21
2949.84
2951.04
2951.76
2951.97
2951.52
2950.42
2948.57
2945.83
2942.24
2937.64
2931.93
2925.07
2916.95
2907.44
2896.47
2883.91
2869.61
2853.58
2835.74
2815.94
2794.12
2770.32
2744.53
2716.67
2686.74
2654.59
2620.41
2584.13
2546.02
2505.87
2464.18
2421.22
2377.28
2331.69
2284.21
2235.54
2186.97
2139.8
2092.02
2044.1
1995.24
1947.43
1902.65
1860.88
1822.81
1788
1757.45
1696.1
2790
2790
2790
2790
2790
2790
2790
2790
2790
2790
2790
2790
2790
2790
2790.01
2790.55
2798.35
2832.49
2883.79
2915.77
2923.94
2922.72
2915.3
2904.95
2896.17
2888.42
2881
2873.88
2867.3
2861.22
2855.56
2850.34
2845.56
2841.21
2837.34
2833.93
2830.9
2828.17
2826.1
2825.29
2827.65
2840.01
2857.68
2869.11
2873.57
2875.18
2876.46
2878.36
2880.88
2883.67
2886.69
2889.92
2893.27
2896.71
2900.3
2904.07
2907.98
2911.98
2916.05
2920.22
2924.52
2928.92
2933.4
2937.91
2942.42
2946.85
2951.16
2955.32
2959.32
2963.19
2966.9
2970.39
2973.63
2976.55
2979.13
2981.28
2982.98
2984.17
2984.8
2984.9
2984.13
2982.69
2980.33
2976.97
2972.59
2967.04
2960.25
2952.12
2942.55
2931.41
2918.72
2904.36
2888.19
2870.18
2850.25
2828.34
2804.36
2778.26
2749.93
2719.54
2687.04
2652.56
2615.95
2577.56
2537.38
2495.68
2452.07
2406.65
2359.6
2311.88
2264.16
2216.84
2168.29
2119.76
2069.12
2020.98
1967.5
1919.73
1874.23
1832.27
1754.66
2790
2790
2790
2790
2790
2790
2790
2790
2790
2790
2790
2790
2790
2790
2790
2790.17
2793.98
2818.69
2870.14
2911.9
2924.75
2926.02
2921.34
2911.73
2902.42
2894.16
2886.62
2879.54
2873.04
2867
2861.38
2856.19
2851.45
2847.18
2843.41
2840.14
2837.29
2834.76
2832.77
2831.85
2833.36
2844.17
2862.99
2876.94
2882.94
2885.05
2886.44
2888.39
2891.07
2894.13
2897.46
2901.03
2904.73
2908.52
2912.45
2916.57
2920.86
2925.28
2929.79
2934.42
2939.21
2944.14
2949.19
2954.33
2959.5
2964.66
2969.75
2974.72
2979.58
2984.35
2989.02
2993.54
2997.87
3001.96
3005.77
3009.27
3012.4
3015.11
3017.33
3019.04
3020.17
3020.68
3020.51
3019.37
3017.43
3014.41
3010.31
3005.04
2998.47
2990.53
2981.14
2970.19
2957.57
2943.19
2926.9
2908.62
2888.32
2865.92
2841.33
2814.63
2785.7
2754.66
2721.42
2686.04
2648.32
2608.7
2567.34
2524.53
2479.87
2433.73
2386.54
2339.09
2291.74
2243.88
2195.78
2145.31
2095.65
2049
2004.04
1965.17
1894.63
2790
2790
2790
2790
2790
2790
2790
2790
2790
2790
2790
2790
2790
2790
2790
2790.05
2791.68
2807.67
2854.75
2904.75
2924.37
2929.89
2926.86
2917.85
2907.99
2899.55
2892.13
2885.24
2878.76
2872.67
2867.04
2861.88
2857.22
2853.07
2849.44
2846.31
2843.65
2841.31
2839.42
2838.42
2839.3
2848.4
2867.83
2884.35
2892.09
2894.82
2896.3
2898.26
2901.1
2904.4
2908
2911.87
2915.9
2920.01
2924.25
2928.68
2933.32
2938.11
2943.02
2948.07
2953.3
2958.72
2964.3
2970
2975.79
2981.62
2987.42
2993.16
2998.81
3004.42
3009.98
3015.46
3020.82
3026.01
3030.99
3035.74
3040.2
3044.33
3048.1
3051.45
3054.32
3056.63
3058.33
3059.35
3059.68
3059.06
3057.53
3054.95
3051.18
3046.22
3039.93
3032.18
3022.94
3012.05
2999.38
2984.85
2968.43
2950.02
2929.51
2906.88
2881.95
2854.81
2825.36
2793.59
2759.36
2723.07
2684.95
2645.17
2603.12
2558.89
2512.33
2464.7
2416.12
2367.1
2317.15
2265.61
2215.54
2158.48
2105.78
2057.12
1972.87
2790
2790
2790
2790
2790
2790
2790
2790
2790
2790
2790
2790
2790
2790
2790
2790.01
2790.64
2799.93
2839.24
2894.6
2923.65
2933.03
2930.94
2923.31
2913.3
2904.91
2897.7
2890.85
2884.21
2878.04
2872.45
2867.39
2862.88
2858.88
2855.39
2852.38
2849.84
2847.65
2845.84
2844.79
2845.22
2852.64
2872.17
2891.17
2900.85
2904.29
2905.91
2907.87
2910.82
2914.36
2918.19
2922.32
2926.65
2931.07
2935.61
2940.35
2945.3
2950.45
2955.75
2961.2
2966.84
2972.69
2978.75
2984.98
2991.33
2997.77
3004.24
3010.68
3017.07
3023.45
3029.82
3036.18
3042.48
3048.67
3054.71
3060.59
3066.27
3071.69
3076.84
3081.66
3086.11
3090.14
3093.69
3096.64
3098.96
3100.56
3101.37
3101.46
3100.32
3098.27
3094.96
3090.33
3084.42
3077.02
3068.06
3057.43
3045.06
3030.8
3014.58
2996.27
2975.72
2952.97
2927.94
2900.68
2871.12
2839.36
2805.34
2769.18
2730.73
2690.05
2647
2602.38
2556.08
2509.16
2460.97
2412.38
2362.68
2312.83
2260.07
2212.39
2128.28
2790
2790
2790
2790
2790
2790
2790
2790
2790
2790
2790
2790
2790
2790
2790
2790
2790.22
2795.16
2825.3
2882.26
2921.81
2934.85
2933.86
2928.2
2918.73
2910.4
2903.07
2895.98
2889.2
2883.08
2877.68
2872.81
2868.46
2864.59
2861.17
2858.21
2855.71
2853.61
2851.86
2850.77
2850.87
2856.87
2876.11
2897.45
2909.2
2913.46
2915.24
2917.19
2920.24
2923.98
2928.02
2932.38
2936.98
2941.69
2946.51
2951.53
2956.79
2962.27
2967.91
2973.73
2979.74
2986
2992.49
2999.18
3006.04
3013.03
3020.09
3027.16
3034.23
3041.31
3048.42
3055.58
3062.73
3069.83
3076.86
3083.78
3090.57
3097.19
3103.61
3109.79
3115.7
3121.28
3126.49
3131.25
3135.5
3139.16
3142.11
3144.36
3145.79
3146.38
3146
3144.36
3141.68
3137.62
3132.23
3125.3
3116.74
3106.4
3094.2
3080.01
3063.71
3045.27
3024.56
3001.62
2976.34
2948.63
2918.32
2885.61
2850.7
2813.57
2774.13
2732.46
2688.56
2643.33
2596.18
2548.12
2497.9
2447.05
2394.45
2342
2258.23
2790
2790
2790
2790
2790
2790
2790
2790
2790
2790
2790
2790
2790
2790
2790
2790
2790.08
2792.52
2814.09
2868.95
2917.67
2935.45
2936.59
2933.01
2924.16
2915.45
2907.77
2900.52
2893.84
2887.98
2882.82
2878.1
2873.82
2869.97
2866.53
2863.54
2861.03
2858.98
2857.31
2856.21
2856.11
2861.04
2879.8
2903.24
2917.1
2922.25
2924.21
2926.15
2929.26
2933.18
2937.4
2941.95
2946.78
2951.75
2956.84
2962.13
2967.68
2973.47
2979.45
2985.62
2991.99
2998.61
3005.49
3012.61
3019.92
3027.41
3035.01
3042.66
3050.34
3058.05
3065.84
3073.71
3081.63
3089.56
3097.47
3105.32
3113.1
3120.79
3128.35
3135.75
3142.96
3149.94
3156.64
3163.01
3168.99
3174.51
3179.5
3183.9
3187.62
3190.57
3192.7
3193.91
3194.25
3193.27
3191.21
3187.75
3182.74
3176.23
3168.03
3158.06
3146.19
3132.34
3116.32
3098.1
3077.55
3054.61
3029.13
3001.31
2971.18
2938.71
2903.87
2866.43
2826.57
2784.54
2740.18
2694.49
2646.32
2598.06
2546.04
2494.63
2416.67
2790
2790
2790
2790
2790
2790
2790
2790
2790
2790
2790
2790
2790
2790
2790
2790
2790.03
2791.2
2805.89
2855.94
2911.53
2935.19
2939.77
2937.27
2928.96
2919.77
2911.82
2904.69
2898.35
2892.82
2887.77
2883.06
2878.72
2874.78
2871.26
2868.23
2865.73
2863.75
2862.18
2861.13
2860.91
2865.13
2883.41
2908.75
2924.65
2930.66
2932.79
2934.71
2937.85
2941.92
2946.3
2951
2956.03
2961.23
2966.57
2972.11
2977.93
2984.02
2990.33
2996.82
3003.53
3010.5
3017.74
3025.24
3032.96
3040.89
3048.97
3057.14
3065.36
3073.64
3082.03
3090.53
3099.14
3107.8
3116.49
3125.17
3133.85
3142.48
3151.06
3159.55
3167.92
3176.15
3184.2
3192.01
3199.54
3206.71
3213.49
3219.79
3225.57
3230.75
3235.27
3238.99
3241.88
3243.82
3244.8
3244.88
3243.3
3240.71
3236.52
3230.73
3223.29
3213.96
3202.61
3189.12
3173.39
3155.36
3134.92
3112.1
3086.66
3058.72
3028.29
2995.25
2959.88
2921.95
2881.9
2839.59
2794.97
2748.59
2699.01
2646.82
2573.6
2790
2790
2790
2790
2790
2790
2790
2790
2790
2790
2790
2790
2790
2790
2790
2790
2790.01
2790.58
2800.38
2844.3
2904.43
2934.77
2942.63
2940.69
2932.97
2923.43
2915.47
2908.73
2902.8
2897.4
2892.25
2887.41
2882.93
2878.89
2875.34
2872.35
2869.92
2868.05
2866.58
2865.61
2865.32
2869.11
2887.13
2914.18
2931.95
2938.68
2940.91
2942.78
2945.93
2950.14
2954.67
2959.52
2964.72
2970.13
2975.68
2981.45
2987.52
2993.89
3000.5
3007.32
3014.35
3021.64
3029.22
3037.07
3045.17
3053.49
3061.99
3070.62
3079.33
3088.13
3097.04
3106.11
3115.31
3124.62
3133.99
3143.41
3152.87
3162.34
3171.8
3181.24
3190.64
3199.96
3209.18
3218.25
3227.13
3235.77
3244.12
3252.12
3259.72
3266.86
3273.48
3279.52
3284.87
3289.49
3293.21
3296.09
3297.92
3298.71
3298.26
3296.19
3292.75
3287.5
3280.48
3271.52
3260.47
3247.23
3231.66
3213.69
3193.03
3169.9
3144.09
3115.72
3084.79
3051.13
3015.15
2976.32
2935.37
2891.91
2846.2
2795.57
2728.98
2790
2790
2790
2790
2790
2790
2790
2790
2790
2790
2790
2790
2790
2790
2790
2790
2790
2790.3
2796.91
2834.75
2897.33
2934.31
2944.9
2943.3
2936.19
2926.65
2918.95
2912.66
2906.98
2901.37
2896.01
2891.03
2886.47
2882.43
2878.96
2876.08
2873.77
2872.02
2870.63
2869.71
2869.35
2872.93
2891.14
2919.75
2939.08
2946.3
2948.5
2950.27
2953.43
2957.79
2962.49
2967.5
2972.88
2978.47
2984.22
2990.19
2996.48
3003.1
3009.99
3017.11
3024.44
3032.04
3039.93
3048.11
3056.54
3065.22
3074.1
3083.14
3092.28
3101.52
3110.89
3120.44
3130.17
3140.04
3150
3160.06
3170.18
3180.37
3190.61
3200.87
3211.15
3221.41
3231.64
3241.81
3251.86
3261.77
3271.48
3280.95
3290.13
3298.98
3307.44
3315.46
3322.97
3329.89
3336.17
3341.72
3346.44
3350.19
3352.96
3354.57
3355.09
3353.99
3351.49
3347.32
3341.23
3333.2
3323.02
3310.6
3295.69
3278.38
3258.3
3235.64
3210.15
3181.94
3151.02
3116.98
3080.3
3040.24
2997.54
2949.36
2886.28
2790
2790
2790
2790
2790
2790
2790
2790
2790
2790
2790
2790
2790
2790
2790
2790
2790
2790.18
2794.85
2827.6
2891.06
2933.84
2946.59
2945.26
2938.89
2929.61
2922.27
2916.29
2910.49
2904.58
2899.06
2894
2889.47
2885.57
2882.29
2879.58
2877.4
2875.74
2874.4
2873.44
2873.02
2876.59
2895.6
2925.68
2946.13
2953.54
2955.55
2957.17
2960.33
2964.87
2969.77
2974.97
2980.53
2986.32
2992.24
2998.39
3004.86
3011.69
3018.83
3026.21
3033.82
3041.7
3049.87
3058.35
3067.09
3076.09
3085.31
3094.71
3104.22
3113.85
3123.63
3133.6
3143.77
3154.11
3164.59
3175.19
3185.89
3196.69
3207.59
3218.55
3229.57
3240.63
3251.72
3262.81
3273.86
3284.84
3295.71
3306.43
3316.96
3327.26
3337.3
3347.02
3356.38
3365.31
3373.75
3381.64
3388.92
3395.5
3401.28
3406.12
3410
3412.72
3414.22
3414.52
3412.82
3409.62
3404.37
3396.95
3387.34
3375.25
3360.45
3342.98
3322.51
3299.34
3273.14
3243.93
3211.7
3175.85
3137.23
3092.99
3035.26
2790
2790
2790
2790
2790
2790
2790
2790
2790
2790
2790
2790
2790
2790
2790
2790
2790
2790.12
2793.72
2822.8
2886.28
2933.55
2947.83
2946.86
2941.28
2932.31
2925.26
2919.32
2913.2
2907.08
2901.48
2896.44
2892.07
2888.43
2885.4
2882.85
2880.78
2879.19
2877.84
2876.79
2876.31
2880.18
2900.72
2932.21
2953.15
2960.45
2962.15
2963.57
2966.73
2971.43
2976.53
2981.93
2987.72
2993.69
2999.8
3006.1
3012.73
3019.74
3027.08
3034.69
3042.54
3050.66
3059.1
3067.84
3076.86
3086.15
3095.67
3105.38
3115.22
3125.19
3135.31
3145.64
3156.2
3166.95
3177.86
3188.91
3200.09
3211.41
3222.85
3234.4
3246.04
3257.77
3269.58
3281.43
3293.31
3305.18
3317.01
3328.77
3340.42
3351.94
3363.28
3374.43
3385.34
3395.95
3406.21
3416.09
3425.52
3434.45
3442.78
3450.44
3457.32
3463.33
3468.26
3472.14
3474.69
3475.93
3475.76
3473.22
3469.29
3462.89
3454.2
3443.01
3428.93
3412.13
3392
3368.88
3341.83
3310.68
3275.86
3234.98
3181.22
2790
2790
2790
2790
2790
2790
2790
2790
2790
2790
2790
2790
2790
2790
2790
2790
2790
2790.1
2793.24
2820.23
2883.58
2933.74
2948.92
2948.43
2943.36
2934.65
2927.74
2921.62
2915.23
2909.01
2903.39
2898.45
2894.3
2890.95
2888.18
2885.81
2883.84
2882.29
2880.92
2879.74
2879.25
2883.94
2906.8
2939.59
2960.21
2967.07
2968.41
2969.63
2972.78
2977.62
2982.88
2988.46
2994.45
3000.63
3006.9
3013.36
3020.14
3027.3
3034.81
3042.6
3050.65
3058.98
3067.64
3076.62
3085.89
3095.43
3105.21
3115.2
3125.33
3135.59
3146.01
3156.65
3167.52
3178.61
3189.89
3201.32
3212.9
3224.65
3236.54
3248.56
3260.72
3273
3285.39
3297.88
3310.43
3323.03
3335.65
3348.26
3360.82
3373.33
3385.74
3398.04
3410.21
3422.2
3433.96
3445.47
3456.68
3467.54
3478
3487.98
3497.42
3506.23
3514.34
3521.62
3528
3533.21
3537.35
3539.95
3541.24
3540.66
3537.77
3532.78
3525.02
3514.51
3500.76
3483.99
3462.74
3437.4
3406.89
3370.49
3321.72
2790
2790
2790
2790
2790
2790
2790
2790
2790
2790
2790
2790
2790
2790
2790
2790
2790
2790.09
2793.12
2819.69
2883.14
2934.45
2950.09
2949.94
2944.93
2936.4
2929.55
2923.27
2916.76
2910.51
2904.92
2900.1
2896.12
2892.99
2890.45
2888.25
2886.41
2884.92
2883.55
2882.29
2881.94
2888.22
2914.22
2948
2967.34
2973.38
2974.37
2975.46
2978.69
2983.62
2988.97
2994.67
3000.81
3007.15
3013.59
3020.2
3027.12
3034.42
3042.08
3050.03
3058.25
3066.76
3075.61
3084.79
3094.27
3104.03
3114.04
3124.27
3134.64
3145.15
3155.83
3166.73
3177.87
3189.25
3200.82
3212.57
3224.49
3236.58
3248.84
3261.27
3273.84
3286.57
3299.43
3312.43
3325.53
3338.71
3351.96
3365.25
3378.55
3391.85
3405.11
3418.34
3431.51
3444.59
3457.54
3470.35
3482.97
3495.38
3507.54
3519.4
3530.89
3541.97
3552.57
3562.61
3571.98
3580.58
3588.29
3594.92
3600.36
3604.47
3607.07
3608.04
3606.87
3603.24
3597.15
3588.02
3574.72
3557.24
3532.48
3502.57
3459.66
2790
2790
2790
2790
2790
2790
2790
2790
2790
2790
2790
2790
2790
2790
2790
2790
2790
2790.1
2793.23
2820.38
2884.66
2936.07
2951.48
2951.25
2945.9
2937.45
2930.66
2924.38
2917.89
2911.67
2906.14
2901.38
2897.47
2894.42
2892.04
2890.03
2888.35
2886.95
2885.65
2884.43
2884.49
2893.45
2923.32
2957.46
2974.58
2979.31
2979.95
2981.03
2984.45
2989.53
2994.91
3000.65
3006.88
3013.32
3019.87
3026.62
3033.68
3041.12
3048.92
3057.01
3065.37
3074.04
3083.05
3092.4
3102.06
3112.01
3122.22
3132.65
3143.24
3153.96
3164.86
3175.99
3187.37
3198.99
3210.82
3222.83
3235.02
3247.41
3259.98
3272.72
3285.64
3298.73
3311.98
3325.39
3338.93
3352.59
3366.34
3380.17
3394.05
3407.97
3421.91
3435.86
3449.81
3463.74
3477.62
3491.43
3505.15
3518.76
3532.23
3545.53
3558.61
3571.44
3583.96
3596.13
3607.86
3619.13
3629.81
3639.84
3649.08
3657.42
3664.64
3670.59
3675.12
3677.82
3678.85
3677.16
3672.82
3664.5
3649.03
3630.27
3597.99
2790
2790
2790
2790
2790
2790
2790
2790
2790
2790
2790
2790
2790
2790
2790
2790
2790
2790.12
2793.68
2823.14
2888.75
2938.59
2953.11
2952.37
2946.32
2937.81
2931.07
2924.95
2918.66
2912.55
2907.08
2902.32
2898.38
2895.3
2892.96
2891.09
2889.58
2888.3
2887.17
2886.13
2887.01
2900.16
2934.21
2967.6
2981.88
2984.92
2985.1
2986.19
2989.97
2995.28
3000.7
3006.45
3012.7
3019.17
3025.79
3032.65
3039.83
3047.41
3055.35
3063.57
3072.07
3080.88
3090.03
3099.53
3109.35
3119.45
3129.83
3140.44
3151.2
3162.12
3173.2
3184.53
3196.11
3207.94
3219.99
3232.23
3244.66
3257.29
3270.12
3283.14
3296.34
3309.73
3323.3
3337.05
3350.95
3364.99
3379.14
3393.4
3407.75
3422.16
3436.63
3451.14
3465.69
3480.28
3494.86
3509.45
3523.99
3538.51
3552.96
3567.33
3581.59
3595.71
3609.66
3623.41
3636.9
3650.11
3662.95
3675.38
3687.3
3698.65
3709.29
3719.14
3727.99
3735.62
3742.01
3746.62
3749.8
3750.28
3746.04
3739.32
3723.53
2790
2790
2790
2790
2790
2790
2790
2790
2790
2790
2790
2790
2790
2790
2790
2790
2790
2790.17
2794.7
2827.91
2894.67
2941.51
2954.75
2953.31
2946.33
2937.64
2930.9
2924.92
2918.96
2913.1
2907.72
2902.98
2898.96
2895.73
2893.31
2891.53
2890.17
2889.01
2888.07
2887.38
2889.84
2908.78
2946.66
2977.65
2988.92
2990.2
2989.87
2990.9
2995.08
3000.68
3006.19
3012
3018.26
3024.72
3031.37
3038.28
3045.58
3053.28
3061.35
3069.71
3078.33
3087.28
3096.57
3106.21
3116.16
3126.42
3136.94
3147.7
3158.62
3169.7
3180.96
3192.45
3204.22
3216.24
3228.48
3240.91
3253.55
3266.39
3279.44
3292.69
3306.14
3319.78
3333.62
3347.65
3361.84
3376.19
3390.68
3405.28
3419.99
3434.79
3449.67
3464.62
3479.63
3494.71
3509.83
3524.98
3540.13
3555.3
3570.45
3585.58
3600.66
3615.68
3630.61
3645.42
3660.08
3674.58
3688.85
3702.87
3716.57
3729.91
3742.8
3755.22
3766.98
3778.08
3788.2
3797.32
3805.04
3811.14
3815.33
3816.3
3815.63
2790
2790
2790
2790
2790
2790
2790
2790
2790
2790
2790
2790
2790
2790
2790
2790
2790
2790.26
2796.45
2834.7
2902.06
2944.59
2956.17
2954.07
2946.09
2937.09
2930.21
2924.3
2918.68
2913.2
2908.03
2903.35
2899.29
2895.91
2893.38
2891.57
2890.28
2889.24
2888.47
2888.36
2893.69
2919.72
2960.21
2986.75
2995.11
2995.05
2994.22
2995.26
2999.86
3005.71
3011.28
3017.16
3023.46
3029.92
3036.56
3043.52
3050.9
3058.72
3066.91
3075.39
3084.15
3093.22
3102.65
3112.41
3122.5
3132.88
3143.55
3154.43
3165.49
3176.7
3188.11
3199.77
3211.71
3223.9
3236.31
3248.92
3261.74
3274.78
3288.02
3301.47
3315.13
3328.99
3343.06
3357.32
3371.75
3386.35
3401.1
3415.97
3430.96
3446.06
3461.24
3476.51
3491.86
3507.29
3522.78
3538.32
3553.89
3569.48
3585.08
3600.69
3616.28
3631.84
3647.33
3662.74
3678.04
3693.23
3708.24
3723.1
3737.73
3752.06
3765.94
3779.39
3792.3
3804.77
3816.46
3827.43
3837.23
3846.11
3853.2
3857.76
3862.83
2790
2790
2790
2790
2790
2790
2790
2790
2790
2790
2790
2790
2790
2790
2790
2790
2790.01
2790.45
2799.18
2843.5
2910.34
2947.58
2957.09
2954.49
2945.62
2936.37
2929.24
2923.19
2917.74
2912.7
2907.89
2903.4
2899.41
2896.02
2893.39
2891.49
2890.19
2889.23
2888.58
2889.38
2899.5
2933.1
2974.01
2994.67
2999.9
2999.26
2998
2999.25
3004.3
3010.37
3015.99
3021.94
3028.28
3034.73
3041.38
3048.37
3055.81
3063.72
3072.02
3080.62
3089.51
3098.73
3108.29
3118.18
3128.39
3138.9
3149.68
3160.69
3171.86
3183.19
3194.73
3206.53
3218.61
3230.95
3243.51
3256.28
3269.25
3282.45
3295.86
3309.49
3323.32
3337.37
3351.62
3366.07
3380.7
3395.5
3410.45
3425.53
3440.73
3456.04
3471.44
3486.93
3502.5
3518.14
3533.85
3549.6
3565.38
3581.2
3597.01
3612.82
3628.6
3644.35
3660.01
3675.63
3691.12
3706.4
3721.45
3736.31
3750.94
3765.26
3779.23
3792.83
3805.88
3817.99
3829.15
3839.34
3848.24
3856.03
3861.96
3865.97
3869.3
2790
2790
2790
2790
2790
2790
2790
2790
2790
2790
2790
2790
2790
2790
2790
2790
2790.02
2790.82
2803.26
2854.09
2918.9
2950.36
2957.35
2954.31
2944.9
2935.64
2928.24
2921.9
2916.37
2911.52
2907.11
2902.97
2899.22
2895.96
2893.38
2891.49
2890.12
2889.18
2888.66
2891.06
2908.25
2948.63
2986.74
3001.82
3003.5
3002.24
3001.12
3002.9
3008.37
3014.54
3020.23
3026.28
3032.68
3039.14
3045.8
3052.83
3060.34
3068.33
3076.71
3085.41
3094.41
3103.75
3113.43
3123.45
3133.78
3144.41
3155.31
3166.42
3177.69
3189.14
3200.8
3212.74
3224.96
3237.43
3250.11
3263.01
3276.11
3289.44
3302.98
3316.74
3330.71
3344.89
3359.28
3373.87
3388.64
3403.58
3418.66
3433.87
3449.19
3464.62
3480.14
3495.73
3511.39
3527.13
3542.9
3558.7
3574.5
3590.3
3606.08
3621.87
3637.57
3653.16
3668.57
3683.95
3699.17
3714.23
3729.12
3743.56
3757.42
3770.64