/*--------------------------------*- C++ -*----------------------------------*\
| =========                 |                                                 |
| \\      /  F ield         | OpenFOAM: The Open Source CFD Toolbox           |
|  \\    /   O peration     | Version:  2406                                  |
|   \\  /    A nd           | Website:  www.openfoam.com                      |
|    \\/     M anipulation  |                                                 |
\*---------------------------------------------------------------------------*/
FoamFile
{
    version     2.0;
    format      ascii;
    arch        "LSB;label=32;scalar=64";
    class       volScalarField;
    location    "0.013";
    object      T;
}
// * * * * * * * * * * * * * * * * * * * * * * * * * * * * * * * * * * * * * //

dimensions      [0 0 0 1 0 0 0];

internalField   nonuniform List<scalar> 
78650
(
223
223
223
223
223
223
223
223
223
223
223
223.002
223.052
223.409
224.257
225.062
225.355
225.444
225.355
225.077
224.757
224.483
224.249
224.036
223.837
223.651
223.474
223.299
223.126
222.957
222.794
222.639
222.496
222.36
222.227
222.103
222.018
221.994
222.047
222.206
222.341
222.379
222.369
222.324
222.265
222.209
222.157
222.107
222.056
222.002
221.945
221.885
221.823
221.757
221.685
221.606
221.519
221.425
221.322
221.209
221.084
220.944
220.787
220.61
220.413
220.193
219.95
219.683
219.388
219.064
218.707
218.315
217.888
217.422
216.915
216.361
215.759
215.111
214.418
213.677
212.888
212.047
211.154
210.207
209.208
208.162
207.075
205.941
204.77
203.55
202.309
201.055
199.787
198.498
197.219
195.915
194.673
193.426
192.203
191.065
189.925
188.847
187.782
186.738
185.757
184.811
183.932
183.109
182.347
181.633
180.948
180.295
179.676
179.083
178.568
178.13
177.762
177.457
177.226
177.059
176.474
223
223
223
223
223
223
223
223
223
223
223
223.001
223.031
223.296
224.078
224.964
225.363
225.491
225.428
225.183
224.859
224.583
224.352
224.144
223.949
223.765
223.586
223.409
223.235
223.067
222.906
222.756
222.616
222.486
222.361
222.241
222.152
222.122
222.164
222.321
222.481
222.539
222.539
222.509
222.458
222.409
222.365
222.324
222.283
222.239
222.194
222.146
222.096
222.044
221.988
221.925
221.855
221.779
221.695
221.603
221.5
221.385
221.254
221.106
220.939
220.752
220.544
220.313
220.058
219.777
219.465
219.123
218.747
218.332
217.878
217.383
216.846
216.267
215.643
214.968
214.241
213.459
212.622
211.729
210.782
209.787
208.746
207.667
206.545
205.377
204.176
202.932
201.686
200.403
199.149
197.858
196.586
195.359
194.11
192.921
191.756
190.639
189.579
188.529
187.533
186.545
185.596
184.684
183.826
183.001
182.236
181.487
180.759
180.074
179.433
178.871
178.402
178.02
177.741
177.552
176.902
223
223
223
223
223
223
223
223
223
223
223
223
223.017
223.204
223.893
224.835
225.359
225.534
225.488
225.285
224.965
224.687
224.457
224.254
224.063
223.879
223.698
223.519
223.345
223.178
223.02
222.873
222.739
222.615
222.496
222.381
222.291
222.255
222.286
222.436
222.62
222.703
222.712
222.692
222.651
222.61
222.574
222.542
222.511
222.478
222.444
222.408
222.371
222.333
222.291
222.243
222.19
222.132
222.067
221.995
221.914
221.821
221.716
221.594
221.456
221.299
221.123
220.927
220.709
220.466
220.197
219.899
219.569
219.204
218.804
218.367
217.891
217.372
216.807
216.192
215.527
214.813
214.047
213.229
212.359
211.437
210.466
209.449
208.388
207.286
206.14
204.944
203.722
202.448
201.169
199.891
198.595
197.356
196.086
194.831
193.593
192.337
191.175
190.045
188.984
187.967
186.993
186.054
185.178
184.32
183.499
182.708
181.952
181.23
180.571
179.969
179.438
178.984
178.623
178.347
177.508
223
223
223
223
223
223
223
223
223
223
223
223
223.009
223.131
223.704
224.669
225.334
225.57
225.54
225.388
225.081
224.799
224.571
224.371
224.181
223.995
223.81
223.631
223.457
223.292
223.139
222.997
222.867
222.749
222.636
222.526
222.433
222.391
222.41
222.547
222.753
222.866
222.885
222.874
222.844
222.812
222.785
222.761
222.739
222.717
222.693
222.669
222.644
222.619
222.591
222.558
222.521
222.479
222.432
222.379
222.319
222.249
222.167
222.072
221.961
221.834
221.69
221.528
221.346
221.143
220.915
220.661
220.379
220.065
219.719
219.337
218.917
218.456
217.952
217.402
216.808
216.168
215.478
214.738
213.945
213.098
212.199
211.254
210.262
209.227
208.145
207.02
205.842
204.635
203.381
202.126
200.819
199.519
198.228
196.914
195.667
194.37
193.126
191.912
190.718
189.594
188.499
187.466
186.508
185.579
184.688
183.831
183.03
182.29
181.624
181.022
180.495
180.044
179.691
179.426
178.664
223
223
223
223
223
223
223
223
223
223
223
223
223.004
223.077
223.525
224.47
225.268
225.59
225.589
225.488
225.202
224.918
224.69
224.491
224.3
224.11
223.924
223.744
223.572
223.411
223.261
223.124
223
222.886
222.779
222.674
222.58
222.531
222.539
222.658
222.883
223.03
223.064
223.06
223.04
223.018
222.999
222.984
222.97
222.958
222.946
222.933
222.92
222.907
222.892
222.875
222.853
222.827
222.798
222.763
222.722
222.673
222.615
222.544
222.46
222.361
222.246
222.116
221.968
221.8
221.611
221.398
221.159
220.892
220.595
220.265
219.9
219.498
219.057
218.575
218.052
217.483
216.865
216.198
215.479
214.705
213.876
212.999
212.071
211.098
210.071
208.999
207.887
206.733
205.541
204.314
203.049
201.753
200.494
199.193
197.925
196.637
195.361
194.137
192.899
191.707
190.511
189.329
188.222
187.145
186.118
185.126
184.186
183.306
182.483
181.738
181.077
180.533
180.113
179.828
178.868
223
223
223
223
223
223
223
223
223
223
223
223
223.002
223.041
223.364
224.239
225.155
225.597
225.643
225.579
225.327
225.048
224.82
224.617
224.42
224.227
224.04
223.861
223.693
223.536
223.391
223.259
223.139
223.03
222.927
222.826
222.732
222.675
222.671
222.77
223.006
223.19
223.246
223.248
223.238
223.224
223.214
223.207
223.203
223.201
223.199
223.197
223.196
223.195
223.193
223.19
223.183
223.173
223.16
223.143
223.121
223.092
223.055
223.008
222.95
222.878
222.792
222.693
222.578
222.446
222.295
222.123
221.928
221.707
221.458
221.18
220.871
220.528
220.147
219.728
219.268
218.763
218.211
217.613
216.964
216.262
215.507
214.703
213.846
212.939
211.976
210.969
209.914
208.816
207.67
206.468
205.249
203.984
202.725
201.439
200.158
198.894
197.607
196.355
195.105
193.903
192.744
191.565
190.431
189.31
188.254
187.246
186.267
185.297
184.381
183.5
182.68
181.96
181.38
180.922
179.76
223
223
223
223
223
223
223
223
223
223
223
223
223.001
223.02
223.232
223.99
224.995
225.581
225.691
225.658
225.459
225.188
224.953
224.741
224.539
224.345
224.158
223.983
223.818
223.666
223.527
223.399
223.283
223.176
223.077
222.98
222.887
222.823
222.808
222.885
223.122
223.345
223.432
223.444
223.44
223.434
223.432
223.435
223.441
223.448
223.456
223.465
223.474
223.485
223.496
223.507
223.514
223.519
223.522
223.522
223.518
223.508
223.493
223.468
223.434
223.388
223.329
223.258
223.174
223.075
222.959
222.824
222.669
222.491
222.288
222.058
221.8
221.511
221.188
220.83
220.434
219.997
219.518
218.996
218.426
217.805
217.135
216.412
215.634
214.804
213.92
212.989
212.004
210.971
209.886
208.756
207.573
206.35
205.078
203.792
202.483
201.196
199.847
198.515
197.196
195.92
194.709
193.483
192.272
191.092
189.972
188.934
187.941
186.959
186.05
185.191
184.437
183.772
183.211
182.751
181.637
223
223
223
223
223
223
223
223
223
223
223
223
223
223.008
223.133
223.739
224.776
225.528
225.723
225.738
225.596
225.334
225.084
224.863
224.66
224.467
224.284
224.111
223.951
223.804
223.669
223.545
223.431
223.327
223.23
223.135
223.043
222.973
222.949
223.003
223.23
223.491
223.617
223.645
223.645
223.645
223.652
223.664
223.679
223.696
223.714
223.733
223.753
223.775
223.799
223.822
223.843
223.863
223.88
223.896
223.91
223.918
223.922
223.92
223.908
223.887
223.855
223.812
223.758
223.691
223.61
223.512
223.396
223.26
223.102
222.92
222.712
222.477
222.211
221.912
221.579
221.207
220.795
220.342
219.843
219.298
218.705
218.061
217.365
216.621
215.824
214.976
214.072
213.121
212.119
211.07
209.969
208.817
207.623
206.396
205.134
203.863
202.538
201.186
199.844
198.503
197.22
195.914
194.596
193.291
191.999
190.793
189.631
188.474
187.358
186.32
185.426
184.679
184.068
183.609
182.233
223
223
223
223
223
223
223
223
223
223
223
223
223
223.003
223.068
223.507
224.509
225.42
225.736
225.814
225.725
225.479
225.214
224.986
224.784
224.594
224.414
224.245
224.089
223.947
223.816
223.694
223.582
223.478
223.382
223.29
223.2
223.126
223.093
223.128
223.334
223.627
223.799
223.85
223.858
223.862
223.875
223.896
223.92
223.946
223.974
224.003
224.034
224.067
224.102
224.138
224.172
224.205
224.238
224.269
224.299
224.326
224.348
224.365
224.375
224.378
224.371
224.355
224.328
224.29
224.241
224.177
224.096
223.999
223.882
223.744
223.583
223.398
223.185
222.943
222.669
222.361
222.017
221.634
221.211
220.746
220.235
219.673
219.062
218.401
217.685
216.915
216.09
215.214
214.283
213.302
212.266
211.183
210.052
208.874
207.668
206.42
205.17
203.876
202.593
201.27
199.992
198.719
197.456
196.18
194.876
193.606
192.404
191.221
190.075
188.901
187.834
186.888
186.09
185.41
183.739
223
223
223
223
223
223
223
223
223
223
223
223
223
223.001
223.03
223.315
224.204
225.248
225.737
225.886
225.828
225.617
225.347
225.116
224.915
224.727
224.55
224.385
224.235
224.096
223.966
223.846
223.733
223.629
223.534
223.443
223.356
223.28
223.241
223.258
223.435
223.753
223.975
224.057
224.075
224.083
224.1
224.129
224.162
224.197
224.234
224.273
224.313
224.357
224.403
224.45
224.498
224.544
224.59
224.636
224.681
224.725
224.765
224.802
224.832
224.856
224.873
224.882
224.883
224.873
224.855
224.824
224.779
224.719
224.642
224.547
224.432
224.295
224.133
223.946
223.73
223.483
223.203
222.888
222.534
222.14
221.703
221.218
220.686
220.107
219.476
218.791
218.052
217.262
216.416
215.518
214.561
213.552
212.483
211.365
210.197
208.991
207.745
206.47
205.163
203.779
202.403
201.071
199.758
198.459
197.144
195.826
194.586
193.412
192.325
191.182
190.144
189.204
188.407
187.782
186.375
223
223
223
223
223
223
223
223
223
223
223
223
223
223
223.012
223.174
223.89
225.008
225.708
225.94
225.909
225.753
225.489
225.253
225.048
224.863
224.691
224.531
224.383
224.246
224.116
223.995
223.882
223.777
223.682
223.593
223.509
223.434
223.39
223.394
223.538
223.869
224.144
224.262
224.294
224.308
224.329
224.364
224.405
224.448
224.494
224.543
224.593
224.646
224.703
224.761
224.821
224.879
224.939
224.998
225.058
225.117
225.175
225.23
225.28
225.325
225.364
225.396
225.421
225.438
225.447
225.448
225.434
225.409
225.37
225.313
225.24
225.147
225.034
224.898
224.736
224.548
224.33
224.08
223.795
223.473
223.112
222.707
222.261
221.769
221.229
220.638
219.997
219.303
218.555
217.754
216.894
215.981
215.013
213.996
212.923
211.802
210.637
209.432
208.174
206.87
205.507
204.164
202.804
201.46
200.059
198.624
197.204
195.808
194.489
193.236
192.013
190.865
189.81
188.979
187.042
223
223
223
223
223
223
223
223
223
223
223
223
223
223
223.004
223.084
223.6
224.703
225.617
225.966
225.979
225.886
225.637
225.391
225.185
225.006
224.839
224.681
224.533
224.394
224.262
224.14
224.026
223.922
223.828
223.742
223.663
223.59
223.542
223.536
223.647
223.978
224.304
224.465
224.516
224.536
224.56
224.6
224.647
224.698
224.753
224.81
224.87
224.932
224.998
225.067
225.137
225.208
225.279
225.352
225.425
225.499
225.573
225.645
225.714
225.779
225.839
225.893
225.942
225.985
226.02
226.047
226.066
226.074
226.07
226.052
226.019
225.969
225.902
225.814
225.705
225.571
225.411
225.222
225.001
224.748
224.459
224.132
223.767
223.358
222.904
222.403
221.852
221.249
220.592
219.881
219.113
218.293
217.414
216.482
215.489
214.445
213.347
212.204
211.021
209.8
208.547
207.245
205.935
204.624
203.326
201.975
200.612
199.221
197.878
196.611
195.414
194.253
193.146
192.139
189.924
223
223
223
223
223
223
223
223
223
223
223
223
223
223
223.001
223.036
223.365
224.354
225.443
225.96
226.057
226
225.779
225.531
225.327
225.153
224.988
224.827
224.676
224.534
224.402
224.28
224.167
224.065
223.972
223.89
223.814
223.746
223.697
223.683
223.764
224.08
224.453
224.663
224.738
224.765
224.793
224.835
224.888
224.947
225.009
225.076
225.144
225.215
225.29
225.368
225.449
225.531
225.613
225.698
225.784
225.872
225.961
226.049
226.135
226.219
226.298
226.373
226.443
226.509
226.57
226.624
226.67
226.708
226.735
226.751
226.756
226.746
226.72
226.678
226.616
226.534
226.43
226.3
226.143
225.957
225.739
225.486
225.197
224.866
224.494
224.078
223.614
223.1
222.536
221.922
221.253
220.529
219.745
218.904
218.003
217.047
216.029
214.96
213.844
212.689
211.474
210.192
208.858
207.505
206.171
204.796
203.393
201.938
200.49
199.12
197.848
196.719
195.735
194.924
193.01
223
223
223
223
223
223
223
223
223
223
223
223
223
223
223
223.013
223.197
223.999
225.191
225.927
226.114
226.086
225.917
225.679
225.478
225.299
225.128
224.964
224.812
224.671
224.54
224.418
224.307
224.206
224.116
224.036
223.965
223.901
223.853
223.834
223.89
224.179
224.59
224.855
224.958
224.996
225.025
225.069
225.127
225.192
225.262
225.336
225.413
225.493
225.575
225.662
225.752
225.843
225.937
226.032
226.131
226.231
226.333
226.436
226.539
226.64
226.737
226.832
226.923
227.01
227.094
227.173
227.246
227.312
227.37
227.419
227.457
227.484
227.498
227.5
227.483
227.45
227.397
227.321
227.222
227.097
226.943
226.758
226.54
226.286
225.996
225.667
225.295
224.878
224.415
223.904
223.34
222.723
222.049
221.32
220.534
219.693
218.791
217.836
216.826
215.765
214.643
213.459
212.216
210.938
209.64
208.332
206.968
205.582
204.114
202.701
201.128
199.743
198.459
197.313
194.93
223
223
223
223
223
223
223
223
223
223
223
223
223
223
223
223.004
223.094
223.676
224.875
225.838
226.132
226.162
226.055
225.835
225.621
225.432
225.258
225.095
224.944
224.805
224.675
224.554
224.444
224.345
224.257
224.181
224.115
224.056
224.009
223.988
224.023
224.276
224.713
225.036
225.175
225.224
225.256
225.301
225.363
225.433
225.51
225.592
225.677
225.764
225.854
225.949
226.047
226.148
226.251
226.356
226.466
226.578
226.693
226.809
226.927
227.044
227.159
227.271
227.381
227.488
227.593
227.695
227.792
227.884
227.969
228.048
228.118
228.178
228.228
228.266
228.291
228.302
228.299
228.273
228.23
228.162
228.07
227.952
227.804
227.626
227.414
227.167
226.881
226.554
226.182
225.763
225.296
224.778
224.205
223.58
222.897
222.159
221.362
220.507
219.586
218.608
217.577
216.497
215.357
214.163
212.926
211.663
210.383
209.068
207.729
206.31
204.91
203.609
202.388
201.377
199.324
223
223
223
223
223
223
223
223
223
223
223
223
223
223
223
223.001
223.04
223.417
224.518
225.674
226.124
226.25
226.181
225.975
225.749
225.556
225.385
225.226
225.077
224.936
224.806
224.686
224.578
224.482
224.398
224.325
224.263
224.208
224.164
224.141
224.162
224.374
224.825
225.207
225.386
225.449
225.483
225.528
225.593
225.669
225.752
225.841
225.933
226.027
226.124
226.225
226.331
226.44
226.552
226.667
226.786
226.909
227.035
227.164
227.295
227.426
227.557
227.686
227.813
227.939
228.063
228.186
228.306
228.422
228.533
228.638
228.738
228.829
228.913
228.987
229.051
229.102
229.14
229.162
229.169
229.156
229.121
229.064
228.98
228.87
228.73
228.558
228.351
228.108
227.823
227.496
227.125
226.707
226.24
225.721
225.147
224.517
223.829
223.081
222.269
221.4
220.478
219.506
218.468
217.362
216.184
214.961
213.695
212.398
211.058
209.663
208.303
206.755
205.351
204.081
201.682
223
223
223
223
223
223
223
223
223
223
223
223
223
223
223
223
223.015
223.235
224.157
225.44
226.107
226.322
226.274
226.1
225.871
225.679
225.513
225.356
225.203
225.06
224.931
224.814
224.71
224.617
224.536
224.466
224.407
224.356
224.314
224.29
224.3
224.473
224.926
225.365
225.587
225.666
225.704
225.749
225.817
225.897
225.985
226.08
226.179
226.28
226.383
226.491
226.604
226.721
226.841
226.965
227.093
227.225
227.362
227.502
227.645
227.79
227.935
228.079
228.222
228.365
228.507
228.648
228.788
228.926
229.06
229.19
229.315
229.435
229.549
229.655
229.753
229.841
229.919
229.984
230.035
230.07
230.087
230.089
230.064
230.019
229.946
229.844
229.714
229.551
229.353
229.117
228.843
228.525
228.162
227.751
227.288
226.772
226.202
225.576
224.893
224.154
223.355
222.499
221.58
220.597
219.546
218.442
217.281
216.088
214.847
213.585
212.293
211.007
209.662
208.475
206.197
223
223
223
223
223
223
223
223
223
223
223
223
223
223
223
223
223.005
223.122
223.831
225.156
226.065
226.363
226.341
226.212
225.995
225.805
225.637
225.474
225.318
225.177
225.052
224.94
224.839
224.749
224.67
224.601
224.544
224.495
224.454
224.429
224.431
224.571
225.017
225.509
225.779
225.877
225.917
225.962
226.032
226.118
226.21
226.31
226.414
226.522
226.631
226.745
226.865
226.989
227.117
227.248
227.384
227.525
227.671
227.821
227.975
228.132
228.29
228.448
228.605
228.762
228.92
229.079
229.237
229.394
229.549
229.702
229.851
229.996
230.137
230.272
230.402
230.523
230.637
230.741
230.833
230.912
230.977
231.025
231.056
231.069
231.06
231.025
230.966
230.878
230.76
230.609
230.422
230.195
229.927
229.615
229.254
228.845
228.383
227.869
227.299
226.67
225.978
225.225
224.414
223.545
222.612
221.616
220.553
219.443
218.273
217.07
215.814
214.55
213.258
211.98
209.795
223
223
223
223
223
223
223
223
223
223
223
223
223
223
223
223
223.002
223.06
223.568
224.848
225.97
226.377
226.403
226.321
226.12
225.92
225.745
225.578
225.425
225.29
225.171
225.062
224.963
224.874
224.795
224.725
224.667
224.619
224.581
224.555
224.553
224.668
225.102
225.642
225.96
226.078
226.123
226.167
226.238
226.328
226.424
226.528
226.637
226.75
226.866
226.986
227.111
227.242
227.378
227.516
227.66
227.809
227.963
228.122
228.286
228.453
228.622
228.792
228.963
229.134
229.306
229.48
229.655
229.829
230.002
230.175
230.345
230.513
230.678
230.839
230.995
231.147
231.292
231.43
231.559
231.678
231.785
231.88
231.96
232.023
232.069
232.095
232.102
232.08
232.036
231.961
231.853
231.713
231.535
231.319
231.061
230.76
230.41
230.01
229.557
229.049
228.482
227.858
227.179
226.441
225.642
224.776
223.843
222.848
221.786
220.686
219.528
218.377
217.15
215.945
214.002
223
223
223
223
223
223
223
223
223
223
223
223
223
223
223
223
223.001
223.028
223.375
224.546
225.829
226.371
226.475
226.419
226.229
226.019
225.837
225.674
225.528
225.401
225.285
225.176
225.076
224.985
224.904
224.834
224.776
224.73
224.694
224.67
224.665
224.763
225.186
225.769
226.133
226.27
226.319
226.363
226.434
226.527
226.626
226.733
226.847
226.965
227.086
227.212
227.343
227.48
227.622
227.768
227.919
228.075
228.237
228.405
228.577
228.753
228.932
229.114
229.296
229.479
229.663
229.85
230.039
230.229
230.419
230.609
230.797
230.985
231.171
231.355
231.536
231.714
231.887
232.055
232.216
232.37
232.515
232.649
232.772
232.883
232.979
233.058
233.119
233.16
233.181
233.182
233.148
233.093
233.003
232.88
232.721
232.521
232.278
231.987
231.648
231.257
230.812
230.313
229.754
229.136
228.458
227.716
226.913
226.044
225.117
224.133
223.1
222.037
220.914
219.735
217.987
223
223
223
223
223
223
223
223
223
223
223
223
223
223
223
223
223
223.014
223.245
224.275
225.667
226.361
226.541
226.496
226.321
226.103
225.921
225.767
225.631
225.507
225.388
225.277
225.174
225.08
224.998
224.929
224.873
224.83
224.796
224.774
224.767
224.855
225.272
225.893
226.299
226.453
226.504
226.546
226.618
226.714
226.816
226.926
227.044
227.167
227.292
227.423
227.559
227.702
227.851
228.004
228.161
228.324
228.493
228.668
228.848
229.033
229.221
229.412
229.604
229.798
229.993
230.192
230.393
230.597
230.801
231.005
231.21
231.415
231.62
231.823
232.025
232.225
232.423
232.617
232.806
232.99
233.167
233.337
233.498
233.649
233.789
233.916
234.028
234.125
234.203
234.264
234.302
234.318
234.309
234.264
234.192
234.081
233.933
233.743
233.509
233.227
232.895
232.511
232.067
231.568
231.008
230.387
229.706
228.956
228.149
227.275
226.359
225.4
224.406
223.304
221.776
223
223
223
223
223
223
223
223
223
223
223
223
223
223
223
223
223
223.007
223.163
224.052
225.503
226.351
226.592
226.556
226.394
226.177
226.001
225.857
225.727
225.598
225.475
225.36
225.255
225.162
225.082
225.016
224.962
224.922
224.89
224.869
224.86
224.943
225.364
226.021
226.462
226.626
226.676
226.717
226.788
226.887
226.994
227.107
227.229
227.355
227.485
227.619
227.761
227.909
228.064
228.223
228.387
228.556
228.732
228.913
229.1
229.292
229.489
229.688
229.889
230.092
230.297
230.505
230.718
230.932
231.149
231.366
231.585
231.805
232.025
232.245
232.465
232.684
232.902
233.119
233.332
233.542
233.747
233.946
234.14
234.325
234.503
234.67
234.827
234.971
235.102
235.217
235.315
235.393
235.45
235.483
235.493
235.47
235.418
235.331
235.204
235.036
234.823
234.562
234.249
233.883
233.458
232.975
232.428
231.817
231.143
230.4
229.607
228.756
227.864
226.857
225.465
223
223
223
223
223
223
223
223
223
223
223
223
223
223
223
223
223
223.004
223.115
223.885
225.359
226.34
226.63
226.6
226.456
226.244
226.077
225.94
225.807
225.672
225.545
225.429
225.325
225.235
225.159
225.096
225.046
225.008
224.977
224.955
224.945
225.028
225.467
226.156
226.622
226.791
226.836
226.873
226.945
227.048
227.159
227.276
227.402
227.532
227.665
227.804
227.949
228.102
228.262
228.426
228.596
228.771
228.953
229.14
229.334
229.532
229.736
229.942
230.151
230.362
230.575
230.792
231.013
231.238
231.464
231.693
231.924
232.156
232.389
232.623
232.858
233.094
233.329
233.564
233.797
234.029
234.257
234.482
234.702
234.917
235.126
235.328
235.522
235.707
235.881
236.044
236.194
236.329
236.448
236.547
236.626
236.681
236.712
236.717
236.682
236.616
236.508
236.354
236.156
235.905
235.598
235.233
234.804
234.315
233.758
233.138
232.462
231.727
230.952
230.064
228.837
223
223
223
223
223
223
223
223
223
223
223
223
223
223
223
223
223
223.003
223.088
223.772
225.248
226.333
226.659
226.637
226.51
226.306
226.145
226.009
225.869
225.729
225.601
225.485
225.384
225.301
225.231
225.172
225.124
225.088
225.057
225.032
225.021
225.111
225.584
226.305
226.782
226.948
226.986
227.018
227.09
227.196
227.311
227.433
227.564
227.698
227.835
227.977
228.125
228.282
228.446
228.615
228.79
228.97
229.157
229.35
229.55
229.754
229.963
230.176
230.392
230.609
230.83
231.054
231.283
231.515
231.751
231.988
232.229
232.471
232.715
232.961
233.209
233.457
233.707
233.957
234.207
234.456
234.704
234.949
235.192
235.431
235.666
235.896
236.121
236.339
236.55
236.752
236.945
237.127
237.296
237.452
237.592
237.713
237.813
237.891
237.942
237.966
237.963
237.91
237.83
237.699
237.521
237.292
237.003
236.656
236.238
235.76
235.21
234.594
233.924
233.135
232.033
223
223
223
223
223
223
223
223
223
223
223
223
223
223
223
223
223
223.002
223.077
223.712
225.186
226.338
226.684
226.673
226.557
226.359
226.202
226.062
225.916
225.773
225.644
225.531
225.436
225.359
225.295
225.24
225.195
225.159
225.128
225.101
225.089
225.198
225.724
226.473
226.942
227.097
227.128
227.155
227.227
227.336
227.455
227.58
227.715
227.854
227.995
228.139
228.291
228.451
228.618
228.791
228.97
229.155
229.346
229.544
229.748
229.958
230.173
230.391
230.612
230.836
231.062
231.293
231.528
231.767
232.01
232.255
232.503
232.754
233.007
233.262
233.52
233.779
234.04
234.303
234.566
234.829
235.092
235.354
235.615
235.874
236.13
236.383
236.632
236.878
237.118
237.352
237.58
237.8
238.011
238.212
238.402
238.579
238.742
238.887
239.015
239.118
239.2
239.251
239.276
239.264
239.205
239.104
238.947
238.734
238.454
238.115
237.696
237.214
236.651
235.979
235.013
223
223
223
223
223
223
223
223
223
223
223
223
223
223
223
223
223
223.002
223.074
223.699
225.176
226.354
226.71
226.707
226.593
226.399
226.243
226.1
225.951
225.808
225.68
225.569
225.478
225.406
225.347
225.297
225.254
225.22
225.188
225.159
225.152
225.296
225.894
226.665
227.104
227.24
227.263
227.287
227.36
227.471
227.592
227.72
227.858
228
228.144
228.292
228.447
228.609
228.78
228.956
229.138
229.327
229.522
229.724
229.933
230.147
230.366
230.589
230.815
231.044
231.275
231.511
231.751
231.996
232.244
232.496
232.75
233.008
233.268
233.532
233.797
234.065
234.336
234.608
234.882
235.156
235.432
235.707
235.982
236.255
236.528
236.799
237.068
237.334
237.598
237.857
238.112
238.362
238.606
238.844
239.074
239.295
239.506
239.705
239.891
240.061
240.212
240.342
240.449
240.529
240.578
240.597
240.573
240.499
240.377
240.197
239.944
239.629
239.195
238.672
237.853
223
223
223
223
223
223
223
223
223
223
223
223
223
223
223
223
223
223.002
223.076
223.716
225.211
226.391
226.742
226.737
226.615
226.423
226.268
226.125
225.977
225.835
225.708
225.599
225.509
225.439
225.384
225.338
225.299
225.267
225.237
225.209
225.21
225.417
226.102
226.88
227.267
227.374
227.389
227.413
227.49
227.604
227.725
227.854
227.994
228.138
228.285
228.435
228.593
228.758
228.932
229.111
229.296
229.487
229.686
229.892
230.104
230.322
230.545
230.772
231.002
231.235
231.471
231.711
231.956
232.205
232.458
232.715
232.975
233.238
233.504
233.774
234.046
234.321
234.599
234.879
235.161
235.445
235.729
236.015
236.301
236.587
236.872
237.157
237.441
237.723
238.004
238.283
238.559
238.832
239.101
239.367
239.627
239.881
240.129
240.369
240.6
240.821
241.029
241.225
241.405
241.566
241.706
241.821
241.908
241.958
241.976
241.946
241.874
241.742
241.493
241.202
240.614
223
223
223
223
223
223
223
223
223
223
223
223
223
223
223
223
223
223.003
223.087
223.78
225.306
226.448
226.779
226.762
226.625
226.431
226.278
226.138
225.994
225.855
225.729
225.62
225.53
225.459
225.405
225.362
225.328
225.298
225.272
225.248
225.269
225.572
226.351
227.109
227.432
227.501
227.505
227.529
227.614
227.734
227.856
227.985
228.125
228.269
228.417
228.57
228.73
228.898
229.074
229.256
229.444
229.638
229.84
230.048
230.263
230.484
230.711
230.941
231.175
231.411
231.651
231.895
232.143
232.397
232.655
232.915
233.18
233.448
233.719
233.993
234.271
234.552
234.835
235.122
235.411
235.702
235.994
236.288
236.582
236.877
237.173
237.468
237.763
238.058
238.352
238.646
238.937
239.227
239.515
239.801
240.083
240.362
240.636
240.906
241.17
241.427
241.677
241.918
242.148
242.367
242.572
242.762
242.932
243.076
243.195
243.285
243.366
243.402
243.36
243.302
243.042
223
223
223
223
223
223
223
223
223
223
223
223
223
223
223
223
223
223.004
223.111
223.892
225.442
226.515
226.816
226.784
226.625
226.427
226.274
226.138
226.001
225.867
225.744
225.635
225.543
225.469
225.413
225.372
225.341
225.314
225.293
225.277
225.334
225.77
226.635
227.337
227.591
227.62
227.612
227.636
227.729
227.855
227.979
228.109
228.249
228.393
228.542
228.696
228.858
229.029
229.207
229.392
229.582
229.779
229.983
230.195
230.412
230.636
230.865
231.099
231.336
231.575
231.818
232.065
232.317
232.575
232.836
233.1
233.368
233.64
233.916
234.194
234.477
234.762
235.051
235.342
235.637
235.933
236.232
236.532
236.833
237.136
237.438
237.742
238.046
238.35
238.654
238.957
239.26
239.562
239.863
240.162
240.46
240.755
241.048
241.337
241.623
241.904
242.181
242.451
242.715
242.971
243.218
243.457
243.682
243.894
244.084
244.257
244.412
244.556
244.688
244.753
244.763
223
223
223
223
223
223
223
223
223
223
223
223
223
223
223
223
223
223.006
223.152
224.051
225.612
226.585
226.848
226.801
226.62
226.415
226.258
226.123
225.995
225.87
225.751
225.644
225.551
225.473
225.415
225.373
225.344
225.32
225.302
225.3
225.423
226.02
226.942
227.542
227.73
227.729
227.71
227.734
227.837
227.968
228.093
228.225
228.365
228.509
228.657
228.812
228.976
229.149
229.33
229.518
229.71
229.91
230.117
230.331
230.551
230.777
231.009
231.245
231.484
231.726
231.972
232.222
232.478
232.738
233.003
233.271
233.542
233.817
234.096
234.379
234.665
234.954
235.247
235.543
235.842
236.143
236.446
236.751
237.058
237.365
237.674
237.983
238.293
238.603
238.914
239.224
239.534
239.844
240.153
240.461
240.768
241.073
241.375
241.676
241.973
242.267
242.557
242.843
243.125
243.399
243.665
243.922
244.169
244.406
244.626
244.834
245.026
245.217
245.389
245.513
245.627
223
223
223
223
223
223
223
223
223
223
223
223
223
223
223
223
223
223.011
223.217
224.257
225.802
226.653
226.869
226.81
226.609
226.399
226.236
226.098
225.974
225.858
225.748
225.645
225.553
225.476
225.415
225.371
225.342
225.32
225.305
225.323
225.556
226.326
227.254
227.72
227.838
227.824
227.795
227.823
227.937
228.073
228.198
228.331
228.473
228.617
228.765
228.92
229.085
229.26
229.443
229.633
229.829
230.031
230.24
230.457
230.679
230.908
231.142
231.381
231.622
231.866
232.114
232.367
232.625
232.889
233.156
233.426
233.701
233.979
234.261
234.547
234.836
235.129
235.425
235.725
236.027
236.332
236.638
236.947
237.257
237.568
237.88
238.193
238.507
238.821
239.135
239.45
239.763
240.077
240.389
240.7
241.01
241.318
241.624
241.928
242.228
242.524
242.814
243.1
243.381
243.655
243.922
244.182
244.43
244.659
244.869
245.062
245.24
245.411
245.556
245.66
245.734
223
223
223
223
223
223
223
223
223
223
223
223
223
223
223
223
223
223.019
223.313
224.503
225.999
226.717
226.875
226.806
226.593
226.382
226.214
226.069
225.942
225.831
225.73
225.635
225.549
225.474
225.415
225.372
225.34
225.319
225.307
225.362
225.757
226.68
227.542
227.881
227.919
227.891
227.866
227.906
228.028
228.166
228.293
228.429
228.571
228.715
228.863
229.019
229.185
229.362
229.547
229.739
229.936
230.141
230.353
230.572
230.797
231.028
231.264
231.505
231.748
231.994
232.245
232.5
232.761
233.026
233.296
233.569
233.846
234.126
234.411
234.699
234.99
235.286
235.584
235.886
236.191
236.498
236.807
237.117
237.429
237.743
238.056
238.371
238.686
239.001
239.316
239.631
239.944
240.257
240.568
240.879
241.186
241.491
241.792
242.091
242.386
242.676
242.963
243.241
243.507
243.76
244.001
244.224
244.433
244.619
244.788
244.937
245.068
245.184
245.272
245.315
245.283
223
223
223
223
223
223
223
223
223
223
223
223
223
223
223
223
223.001
223.036
223.448
224.781
226.187
226.773
226.872
226.782
226.566
226.364
226.193
226.041
225.909
225.797
225.699
225.612
225.533
225.465
225.41
225.37
225.338
225.317
225.314
225.439
226.04
227.057
227.779
228.012
227.989
227.937
227.924
227.98
228.111
228.248
228.377
228.514
228.658
228.802
228.952
229.109
229.278