/*--------------------------------*- C++ -*----------------------------------*\
| =========                 |                                                 |
| \\      /  F ield         | OpenFOAM: The Open Source CFD Toolbox           |
|  \\    /   O peration     | Version:  2406                                  |
|   \\  /    A nd           | Website:  www.openfoam.com                      |
|    \\/     M anipulation  |                                                 |
\*---------------------------------------------------------------------------*/
FoamFile
{
    version     2.0;
    format      ascii;
    arch        "LSB;label=32;scalar=64";
    class       volScalarField;
    location    "0.007";
    object      p;
}
// * * * * * * * * * * * * * * * * * * * * * * * * * * * * * * * * * * * * * //

dimensions      [1 -1 -2 0 0 0 0];

internalField   nonuniform List<scalar> 
78650
(
2790
2790
2790
2790
2790
2790
2790
2790
2790
2790
2790
2790
2790
2790
2790
2790
2790
2790
2790
2790
2790
2790
2790.01
2790.38
2796.82
2830.93
2892.77
2938.79
2951.51
2954.09
2949.87
2940.86
2931.09
2923.02
2915.85
2909.05
2902.74
2897.06
2891.65
2886.46
2881.4
2876.38
2871.4
2866.54
2861.87
2857.42
2853.17
2849.13
2845.28
2841.57
2837.95
2834.34
2830.67
2826.9
2822.99
2818.93
2814.65
2810.12
2805.35
2800.36
2795.08
2789.3
2782.85
2775.76
2768.11
2759.96
2751.22
2741.7
2731.24
2719.75
2707.17
2693.46
2678.58
2662.48
2645.08
2626.35
2606.26
2584.71
2561.58
2536.84
2510.63
2483.03
2453.87
2423.29
2391.15
2358.01
2323.55
2288.16
2251.78
2214.79
2177.35
2140.02
2102.57
2065.33
2029.25
1993.17
1959.19
1925.72
1894.45
1863.89
1834.52
1806.95
1779.9
1754.4
1730.04
1707.11
1686
1666.01
1647.13
1629.31
1612.72
1597.33
1583.2
1570.03
1557.84
1546.27
1535.71
1525.99
1517.33
1509.97
1496.5
2790
2790
2790
2790
2790
2790
2790
2790
2790
2790
2790
2790
2790
2790
2790
2790
2790
2790
2790
2790
2790
2790
2790
2790.18
2794.15
2820.89
2880.78
2934
2952.6
2957.29
2954.05
2945.84
2935.9
2927.72
2920.7
2914.22
2908.18
2902.67
2897.35
2892.23
2887.23
2882.31
2877.46
2872.79
2868.36
2864.18
2860.25
2856.54
2853.02
2849.66
2846.39
2843.15
2839.88
2836.53
2833.08
2829.52
2825.79
2821.84
2817.68
2813.36
2808.82
2803.9
2798.4
2792.28
2785.66
2778.6
2771.03
2762.81
2753.75
2743.74
2732.72
2720.64
2707.47
2693.14
2677.62
2660.82
2642.67
2623.1
2602.02
2579.41
2555.29
2529.57
2502.1
2473.07
2442.47
2410.77
2377.62
2343.52
2308.11
2271.93
2235.18
2197.89
2160.37
2122.78
2085.44
2048.45
2012.1
1976.87
1942.27
1910.06
1878.5
1849.12
1820.16
1792.45
1766.32
1741.05
1717.56
1694.93
1674.08
1654.13
1635.31
1617.52
1600.84
1585.52
1571.43
1558.09
1545.62
1533.91
1523.5
1514.33
1497.02
2790
2790
2790
2790
2790
2790
2790
2790
2790
2790
2790
2790
2790
2790
2790
2790
2790
2790
2790
2790
2790
2790
2790
2790.08
2792.38
2812.19
2867.82
2927.15
2953.07
2960.34
2957.73
2950.56
2940.74
2932.51
2925.64
2919.46
2913.67
2908.31
2903.08
2898.01
2893.08
2888.25
2883.55
2879.09
2874.92
2871.04
2867.42
2864.04
2860.87
2857.84
2854.92
2852.04
2849.15
2846.21
2843.21
2840.13
2836.93
2833.56
2830.01
2826.34
2822.53
2818.41
2813.81
2808.65
2803
2796.98
2790.54
2783.54
2775.8
2767.18
2757.63
2747.09
2735.52
2722.9
2709.15
2694.19
2677.94
2660.37
2641.39
2620.91
2598.87
2575.16
2549.77
2522.88
2494.5
2464.83
2433.61
2401.24
2367.33
2332.48
2296.53
2259.84
2222.6
2184.82
2146.75
2108.78
2070.47
2033.6
1996.35
1961.4
1926.96
1893.65
1862.38
1831.59
1803.47
1776.5
1751.1
1726.98
1704.64
1683.82
1664.49
1645.65
1627.68
1610.05
1593.61
1578.27
1563.95
1550.57
1538.41
1527.76
1507.85
2790
2790
2790
2790
2790
2790
2790
2790
2790
2790
2790
2790
2790
2790
2790
2790
2790
2790
2790
2790
2790
2790
2790
2790.03
2791.24
2804.87
2853.75
2917.93
2952.7
2963.06
2961.05
2955.3
2945.92
2937.67
2930.87
2924.98
2919.4
2914.11
2908.92
2903.88
2899
2894.28
2889.77
2885.53
2881.63
2878.06
2874.75
2871.68
2868.82
2866.11
2863.5
2860.96
2858.43
2855.88
2853.31
2850.69
2848.01
2845.21
2842.26
2839.21
2836.09
2832.77
2829.06
2824.84
2820.17
2815.16
2809.83
2804.04
2797.62
2790.42
2782.36
2773.4
2763.48
2752.6
2740.67
2727.62
2713.37
2697.88
2681.02
2662.67
2642.77
2621.23
2598.1
2573.46
2547.21
2519.41
2489.94
2459.11
2426.59
2393
2358.1
2322.48
2285.96
2248.8
2211.31
2173.42
2135.77
2098.11
2060.91
2023.82
1989.02
1953.76
1920.8
1887.06
1854.88
1823.82
1793.81
1765.68
1739.16
1714.73
1692.29
1671.61
1652.25
1633.48
1616.05
1599.52
1584.38
1569.89
1556.37
1544.29
1520.84
2790
2790
2790
2790
2790
2790
2790
2790
2790
2790
2790
2790
2790
2790
2790
2790
2790
2790
2790
2790
2790
2790
2790
2790.01
2790.59
2799.22
2839.63
2906.18
2950.43
2965.14
2964.38
2960.04
2951.21
2943.05
2936.31
2930.68
2925.25
2919.99
2914.8
2909.79
2905
2900.42
2896.12
2892.13
2888.52
2885.24
2882.24
2879.48
2876.92
2874.51
2872.2
2869.98
2867.8
2865.64
2863.49
2861.33
2859.15
2856.9
2854.54
2852.12
2849.66
2847.09
2844.23
2840.93
2837.2
2833.17
2828.88
2824.23
2819.06
2813.2
2806.55
2799.05
2790.68
2781.43
2771.22
2759.98
2747.63
2734.12
2719.32
2703.11
2685.45
2666.26
2645.54
2623.23
2599.2
2573.5
2546.15
2517.33
2486.78
2454.92
2421.5
2387.07
2351.31
2314.67
2277.17
2239.13
2200.85
2161.76
2123.51
2085.13
2048.64
2012.56
1977.81
1943.96
1910.33
1878.38
1847.23
1817.65
1789.08
1761.46
1735.2
1710.72
1688.14
1666.62
1646.3
1626.79
1609.23
1592.81
1577.57
1563.6
1534.95
2790
2790
2790
2790
2790
2790
2790
2790
2790
2790
2790
2790
2790
2790
2790
2790
2790
2790
2790
2790
2790
2790
2790
2790
2790.25
2795.18
2826.12
2891.44
2945.41
2966.5
2967.88
2964.62
2956.61
2948.85
2942.16
2936.68
2931.27
2925.96
2920.77
2915.83
2911.16
2906.78
2902.7
2898.98
2895.65
2892.66
2889.94
2887.46
2885.17
2883.03
2881
2879.08
2877.22
2875.43
2873.68
2871.97
2870.29
2868.58
2866.81
2864.99
2863.17
2861.33
2859.29
2856.89
2854.11
2851.03
2847.76
2844.23
2840.29
2835.76
2830.53
2824.52
2817.73
2810.14
2801.68
2792.29
2781.9
2770.43
2757.74
2743.76
2728.4
2711.57
2693.16
2673.1
2651.32
2627.91
2602.89
2576.3
2547.93
2518.05
2486.47
2453.68
2419.38
2384.13
2347.62
2310.29
2272.23
2233.72
2194.62
2155.38
2115.78
2077.38
2039.15
2002.9
1966.05
1931.04
1897.25
1865.6
1835.5
1806.57
1779.02
1752.98
1729.27
1706.79
1685.65
1664.21
1644.63
1626.63
1610.75
1596.95
1572.43
2790
2790
2790
2790
2790
2790
2790
2790
2790
2790
2790
2790
2790
2790
2790
2790
2790
2790
2790
2790
2790
2790
2790
2790
2790.09
2792.61
2814.26
2874.51
2937.42
2966.7
2971.13
2968.97
2962.35
2955.06
2948.27
2942.75
2937.29
2931.94
2926.79
2921.96
2917.47
2913.29
2909.46
2906.01
2902.95
2900.24
2897.79
2895.56
2893.53
2891.65
2889.89
2888.26
2886.73
2885.3
2883.96
2882.68
2881.48
2880.31
2879.12
2877.9
2876.71
2875.55
2874.29
2872.77
2870.89
2868.73
2866.43
2863.95
2861.15
2857.88
2853.98
2849.37
2844.06
2838.01
2831.18
2823.52
2814.96
2805.42
2794.77
2782.95
2769.85
2755.32
2739.28
2721.69
2702.52
2681.79
2659.43
2635.41
2609.58
2582.12
2552.87
2522.2
2489.88
2456.36
2421.29
2385.29
2348.24
2310.47
2272.02
2232.82
2193.3
2154.28
2115.56
2077.59
2039.89
2002.52
1965.83
1929.23
1894.06
1860.37
1828.39
1797.44
1768.68
1741.2
1715.76
1691.25
1667.73
1645.48
1624.82
1607.08
1574.5
2790
2790
2790
2790
2790
2790
2790
2790
2790
2790
2790
2790
2790
2790
2790
2790
2790
2790
2790
2790
2790
2790
2790
2790
2790.03
2791.16
2804.78
2856.21
2925.39
2965.58
2973.65
2973.52
2968.55
2961.37
2954.37
2948.78
2943.34
2938.01
2932.95
2928.29
2924
2920.06
2916.49
2913.31
2910.51
2908.04
2905.82
2903.81
2902
2900.34
2898.83
2897.47
2896.25
2895.18
2894.23
2893.39
2892.67
2892.02
2891.39
2890.76
2890.18
2889.67
2889.16
2888.48
2887.5
2886.25
2884.89
2883.42
2881.74
2879.7
2877.12
2873.92
2870.08
2865.58
2860.4
2854.5
2847.79
2840.21
2831.63
2821.99
2811.15
2798.96
2785.37
2770.32
2753.74
2735.54
2715.65
2694.05
2670.67
2645.6
2618.67
2590.14
2559.9
2528.27
2494.93
2460.38
2424.42
2387.56
2349.67
2310.92
2271.5
2231.52
2192.15
2152.82
2115.1
2076.89
2040.22
2002.39
1967.04
1933.03
1901
1869.28
1838.91
1809.32
1781.9
1755.05
1730.87
1707.53
1685.18
1664.27
1624.95
2790
2790
2790
2790
2790
2790
2790
2790
2790
2790
2790
2790
2790
2790
2790
2790
2790
2790
2790
2790
2790
2790
2790
2790
2790.01
2790.45
2798.03
2838.06
2909.58
2961.27
2975.46
2978.33
2974.47
2967.49
2960.44
2954.86
2949.48
2944.18
2939.24
2934.76
2930.7
2927.01
2923.71
2920.78
2918.21
2915.95
2913.93
2912.11
2910.5
2909.05
2907.78
2906.69
2905.78
2905.07
2904.52
2904.11
2903.86
2903.73
2903.66
2903.61
2903.62
2903.74
2903.92
2904.01
2903.92
2903.56
2903.09
2902.57
2901.93
2901.03
2899.7
2897.81
2895.34
2892.28
2888.63
2884.34
2879.37
2873.62
2866.99
2859.41
2850.75
2840.87
2829.72
2817.22
2803.22
2787.66
2770.5
2751.74
2731.31
2709.15
2685.1
2659.3
2631.72
2602.49
2571.37
2538.74
2504.43
2468.93
2431.98
2393.88
2354.6
2314.58
2274
2233.45
2192.95
2152.87
2112.98
2072.78
2033.02
1995.17
1958.47
1922.82
1888.56
1856.04
1825.42
1796.36
1769.73
1744.44
1721.83
1702.35
1664.23
2790
2790
2790
2790
2790
2790
2790
2790
2790
2790
2790
2790
2790
2790
2790
2790
2790
2790
2790
2790
2790
2790
2790
2790
2790
2790.15
2793.83
2821.8
2890.02
2953.17
2976.77
2982.59
2979.93
2973.65
2966.61
2960.96
2955.66
2950.45
2945.69
2941.47
2937.68
2934.26
2931.19
2928.47
2926.07
2923.96
2922.08
2920.42
2918.97
2917.72
2916.69
2915.86
2915.27
2914.92
2914.78
2914.78
2915
2915.36
2915.84
2916.35
2916.93
2917.64
2918.5
2919.34
2920.03
2920.55
2920.97
2921.37
2921.72
2921.91
2921.78
2921.19
2920.11
2918.49
2916.34
2913.67
2910.4
2906.48
2901.8
2896.28
2889.8
2882.23
2873.5
2863.47
2852.02
2839.12
2824.71
2808.75
2791.13
2771.77
2750.52
2727.49
2702.67
2676.15
2647.78
2617.84
2586.1
2552.96
2518.27
2482.41
2445.12
2406.71
2367.26
2327.1
2286.61
2245.94
2205.34
2165.95
2124.82
2084.67
2044.86
2006.46
1968.53
1932.18
1895.79
1861.68
1828.1
1797.07
1767.79
1742.2
1695.28
2790
2790
2790
2790
2790
2790
2790
2790
2790
2790
2790
2790
2790
2790
2790
2790
2790
2790
2790
2790
2790
2790
2790
2790
2790
2790.04
2791.58
2808.87
2868.2
2940.69
2976.37
2985.96
2984.97
2979.77
2972.93
2967.12
2961.91
2956.87
2952.35
2948.42
2944.88
2941.65
2938.74
2936.15
2933.89
2931.9
2930.14
2928.64
2927.36
2926.31
2925.52
2924.98
2924.71
2924.7
2924.97
2925.42
2926.06
2926.91
2927.9
2928.97
2930.1
2931.38
2932.86
2934.42
2935.89
2937.21
2938.46
2939.74
2941.05
2942.25
2943.2
2943.8
2943.99
2943.74
2942.98
2941.81
2940.13
2937.88
2935.02
2931.42
2926.99
2921.62
2915.21
2907.61
2898.75
2888.58
2877.01
2863.94
2849.3
2833.01
2814.93
2795.1
2773.43
2749.98
2724.64
2697.46
2668.23
2637.3
2604.61
2570.41
2534.33
2496.77
2457.82
2418.07
2377.67
2336.88
2296.04
2255.1
2214.68
2173.1
2132.31
2092.39
2054.04
2016.78
1980.04
1944.66
1910.74
1877.88
1847.27
1819.2
1766.76
2790
2790
2790
2790
2790
2790
2790
2790
2790
2790
2790
2790
2790
2790
2790
2790
2790
2790
2790
2790
2790
2790
2790
2790
2790
2790.01
2790.56
2799.88
2846.28
2923.39
2973.26
2988.71
2989.95
2985.71
2979.17
2973.22
2968.26
2963.56
2959.35
2955.62
2952.2
2949.06
2946.25
2943.76
2941.6
2939.72
2938.09
2936.74
2935.64
2934.81
2934.27
2934.02
2934.07
2934.45
2935.07
2935.93
2937
2938.3
2939.8
2941.39
2943.04
2944.85
2946.91
2949.14
2951.36
2953.45
2955.49
2957.6
2959.8
2961.99
2964.03
2965.77
2967.14
2968.16
2968.8
2969.08
2968.97
2968.36
2967.29
2965.6
2963.16
2959.95
2955.81
2950.59
2944.26
2936.72
2927.85
2917.56
2905.8
2892.5
2877.53
2860.84
2842.32
2821.98
2799.76
2775.65
2749.48
2721.56
2691.78
2660.31
2626.9
2591.88
2555.16
2517.2
2477.9
2437.58
2396.27
2354.4
2311.94
2269.07
2225.82
2182.62
2140.82
2099.55
2060.3
2019.71
1983.09
1945.83
1913.38
1884.73
1830.27
2790
2790
2790
2790
2790
2790
2790
2790
2790
2790
2790
2790
2790
2790
2790
2790
2790
2790
2790
2790
2790
2790
2790
2790
2790
2790
2790.17
2794.51
2826.78
2901.76
2965.76
2990.14
2994.27
2991.07
2985.29
2979.45
2974.85
2970.46
2966.38
2962.69
2959.31
2956.25
2953.56
2951.19
2949.16
2947.39
2945.89
2944.69
2943.77
2943.18
2942.9
2942.94
2943.35
2944.05
2945.05
2946.3
2947.78
2949.5
2951.46
2953.55
2955.71
2958.02
2960.6
2963.46
2966.39
2969.23
2972.02
2974.89
2977.92
2981.02
2984.04
2986.85
2989.37
2991.59
2993.49
2995.09
2996.37
2997.29
2997.81
2997.92
2997.32
2996.14
2994.16
2991.22
2987.33
2982.34
2976.16
2968.72
2959.96
2949.79
2938.09
2924.75
2909.61
2892.69
2873.94
2853.32
2830.7
2806.22
2779.71
2751.35
2721
2688.85
2654.68
2618.88
2581.36
2542.5
2502.2
2461.07
2419.3
2377.06
2334.15
2290.58
2246.65
2203.4
2161.01
2118.17
2076.79
2033.4
1993.34
1956.65
1892.18
2790
2790
2790
2790
2790
2790
2790
2790
2790
2790
2790
2790
2790
2790
2790
2790
2790
2790
2790
2790
2790
2790
2790
2790
2790
2790
2790.05
2791.78
2811.53
2877.64
2953.43
2990.13
2997.49
2995.97
2991.64
2986.13
2981.63
2977.19
2973.09
2969.45
2966.21
2963.31
2960.74
2958.46
2956.5
2954.83
2953.47
2952.44
2951.74
2951.42
2951.4
2951.78
2952.48
2953.52
2954.87
2956.48
2958.33
2960.45
2962.82
2965.38
2968.03
2970.8
2973.87
2977.29
2980.88
2984.44
2987.94
2991.54
2995.32
2999.26
3003.22
3007.04
3010.63
3013.98
3017.09
3019.97
3022.63
3025.02
3027.08
3028.77
3030.01
3030.71
3030.86
3030.08
3028.57
3026.03
3022.39
3017.67
3011.72
3004.48
2995.84
2985.67
2973.83
2960.32
2945.08
2928.08
2909.16
2888.32
2865.37
2840.51
2813.65
2784.82
2753.74
2720.7
2685.7
2649.03
2610.63
2570.96
2530.14
2488.75
2446.42
2403.12
2358.87
2314.4
2270.82
2228.29
2186.33
2144.09
2102.7
2065.63
1997.71
2790
2790
2790
2790
2790
2790
2790
2790
2790
2790
2790
2790
2790
2790
2790
2790
2790
2790
2790
2790
2790
2790
2790
2790
2790
2790
2790.01
2790.61
2801.21
2853.58
2936.18
2987.49
2999.54
3001.32
2998.08
2992.7
2987.85
2983.3
2979.4
2976.02
2972.99
2970.23
2967.73
2965.5
2963.6
2962.03
2960.85
2960.03
2959.59
2959.51
2959.83
2960.45
2961.45
2962.8
2964.46
2966.39
2968.58
2971.05
2973.8
2976.8
2979.9
2983.13
2986.65
2990.58
2994.78
2999.02
3003.21
3007.48
3011.96
3016.66
3021.47
3026.22
3030.81
3035.21
3039.42
3043.47
3047.35
3051.06
3054.55
3057.78
3060.67
3063.11
3065.04
3066.34
3066.97
3066.9
3065.69
3063.67
3060.52
3056.2
3050.67
3043.76
3035.38
3025.46
3013.9
3000.62
2985.44
2968.31
2949.06
2927.86
2904.54
2879.13
2851.42
2821.64
2789.77
2756.07
2720.5
2683.19
2644.06
2603.69
2561.92
2519.24
2475.11
2429.96
2384.01
2338.26
2292.9
2250.29
2202.77
2161.54
2089.44
2790
2790
2790
2790
2790
2790
2790
2790
2790
2790
2790
2790
2790
2790
2790
2790
2790
2790
2790
2790
2790
2790
2790
2790
2790
2790
2790
2790.19
2795.19
2832.4
2914.73
2980.73
3001.02
3006.55
3003.91
2998.56
2993.48
2989.21
2985.8
2982.67
2979.72
2976.94
2974.4
2972.19
2970.42
2969.07
2968.13
2967.57
2967.39
2967.58
2968.12
2968.98
2970.23
2971.84
2973.76
2975.98
2978.48
2981.26
2984.37
2987.75
2991.29
2994.95
2998.89
3003.27
3008.02
3012.89
3017.73
3022.63
3027.74
3033.13
3038.71
3044.32
3049.84
3055.22
3060.47
3065.6
3070.64
3075.59
3080.4
3085.05
3089.47
3093.58
3097.31
3100.54
3103.15
3105.11
3106.32
3106.76
3106.25
3104.65
3102.03
3098.13
3092.98
3086.4
3078.27
3068.52
3057.05
3043.78
3028.58
3011.48
2992.33
2971.2
2947.96
2922.67
2895.14
2865.51
2833.73
2799.78
2763.63
2725.63
2685.92
2645.08
2602.62
2558.94
2513.5
2467.29
2420.34
2373.38
2325.86
2281.34
2206.24
2790
2790
2790
2790
2790
2790
2790
2790
2790
2790
2790
2790
2790
2790
2790
2790
2790
2790
2790
2790
2790
2790
2790
2790
2790
2790
2790
2790.05
2792.15
2815.97
2891.02
2969.81
3001.89
3010.61
3008.78
3003.88
2999.04
2995.25
2992.21
2989.09
2986.03
2983.15
2980.63
2978.58
2977.08
2976.03
2975.36
2975.04
2975.04
2975.44
2976.12
2977.16
2978.6
2980.43
2982.6
2985.08
2987.87
2990.96
2994.39
2998.14
3002.08
3006.16
3010.49
3015.29
3020.53
3025.97
3031.42
3036.92
3042.61
3048.62
3054.9
3061.29
3067.66
3073.95
3080.14
3086.26
3092.34
3098.39
3104.4
3110.32
3116.12
3121.72
3127.04
3132.01
3136.52
3140.51
3143.86
3146.51
3148.41
3149.47
3149.75
3148.82
3146.91
3143.69
3139
3132.94
3125.31
3116.06
3105.01
3092.12
3077.22
3060.35
3041.34
3020.13
2996.46
2970.54
2942.3
2911.85
2879.26
2844.56
2807.96
2769.73
2729.81
2688.66
2645.56
2601.5
2555.63
2510
2462.46
2416.71
2342.85
2790
2790
2790
2790
2790
2790
2790
2790
2790
2790
2790
2790
2790
2790
2790
2790
2790
2790
2790
2790
2790
2790
2790
2790
2790
2790
2790
2790.01
2790.82
2804.7
2867.62
2955.31
3001.2
3013.52
3012.79
3009.2
3004.85
3001.3
2998.29
2994.99
2991.76
2988.91
2986.6
2984.89
2983.74
2982.98
2982.5
2982.32
2982.38
2982.87
2983.65
2984.84
2986.47
2988.53
2990.95
2993.7
2996.77
3000.16
3003.89
3007.97
3012.29
3016.75
3021.45
3026.61
3032.28
3038.24
3044.25
3050.29
3056.53
3063.09
3069.99
3077.09
3084.24
3091.35
3098.4
3105.42
3112.45
3119.5
3126.59
3133.68
3140.73
3147.68
3154.48
3161.02
3167.25
3173.06
3178.39
3183.17
3187.33
3190.76
3193.43
3195.24
3196.13
3196.16
3194.61
3192.07
3188.06
3182.56
3175.48
3166.65
3155.94
3143.32
3128.6
3111.75
3092.57
3071.22
3047.47
3021.51
2993.25
2962.6
2929.66
2894.37
2857.12
2817.95
2776.74
2733.88
2688.54
2642.81
2593.74
2545.11
2473.4
2790
2790
2790
2790
2790
2790
2790
2790
2790
2790
2790
2790
2790
2790
2790
2790
2790
2790
2790
2790
2790
2790
2790
2790
2790
2790
2790
2790
2790.3
2797.83
2846.9
2938.23
2998.31
3015.27
3016.68
3014.64
3010.62
3006.95
3003.69
3000.18
2996.99
2994.41
2992.49
2991.14
2990.26
2989.64
2989.19
2989.02
2989.09
2989.62
2990.52
2991.9
2993.75
2996.07
2998.76
3001.79
3005.13
3008.79
3012.8
3017.18
3021.83
3026.64
3031.69
3037.17
3043.22
3049.63
3056.15
3062.7
3069.42
3076.49
3083.94
3091.67
3099.52
3107.38
3115.21
3123.04
3130.91
3138.85
3146.89
3155
3163.17
3171.32
3179.41
3187.36
3195.11
3202.56
3209.66
3216.33
3222.53
3228.2
3233.24
3237.61
3241.16
3243.9
3245.65
3246.41
3246.03
3244.13
3240.96
3236.09
3229.55
3221.22
3210.96
3198.75
3184.43
3168.02
3149.21
3128.21
3104.77
3078.95
3050.75
3020.09
2987.34
2952.26
2915.35
2876.15
2834.91
2791.57
2745.75
2696.07
2629.27
2790
2790
2790
2790
2790
2790
2790
2790
2790
2790
2790
2790
2790
2790
2790
2790
2790
2790
2790
2790
2790
2790
2790
2790
2790
2790
2790
2790
2790.11
2794.03
2830.28
2919.99
2992.96
3016.22
3020.57
3019.87
3015.97
3011.87
3008.32
3004.87
3002.01
2999.86
2998.31
2997.19
2996.39
2995.73
2995.19
2994.93
2995.1
2995.73
2996.83
2998.46
3000.58
3003.16
3006.12
3009.39
3012.97
3016.87
3021.12
3025.74
3030.67
3035.8
3041.16
3046.94
3053.3
3060.1
3067.08
3074.09
3081.27
3088.8
3096.75
3105.04
3113.52
3122.04
3130.56
3139.11
3147.73
3156.46
3165.34
3174.36
3183.5
3192.71
3201.95
3211.14
3220.23
3229.14
3237.81
3246.17
3254.18
3261.78
3268.92
3275.52
3281.53
3286.86
3291.39
3295
3297.65
3299.2
3299.71
3298.71
3296.35
3292.43
3286.74
3279.31
3269.88
3258.39
3244.54
3228.46
3209.82
3188.8
3165.2
3139.11
3110.54
3079.44
3046.15
3010.21
2972.16
2931.47
2888.48
2840.6
2777.63
2790
2790
2790
2790
2790
2790
2790
2790
2790
2790
2790
2790
2790
2790
2790
2790
2790
2790
2790
2790
2790
2790
2790
2790
2790
2790
2790
2790
2790.04
2792.08
2818.1
2902.31
2985.86
3016.92
3024.32
3024.47
3020.53
3016
3012.41
3009.36
3006.97
3005.22
3003.87
3002.78
3001.86
3001.05
3000.42
3000.14
3000.49
3001.35
3002.72
3004.63
3007.02
3009.84
3013.01
3016.48
3020.24
3024.32
3028.75
3033.57
3038.74
3044.14
3049.78
3055.82
3062.47
3069.62
3077.01
3084.46
3092.06
3100.01
3108.41
3117.2
3126.22
3135.33
3144.46
3153.64
3162.92
3172.34
3181.95
3191.75
3201.73
3211.86
3222.08
3232.34
3242.59
3252.76
3262.78
3272.61
3282.21
3291.52
3300.5
3309.09
3317.25
3324.9
3331.97
3338.35
3343.96
3348.65
3352.38
3355.01
3356.45
3356.74
3355.1
3352.06
3347.04
3340.03
3330.96
3319.71
3306.05
3290.14
3271.65
3250.76
3227.23
3201.29
3172.89
3141.73
3108.2
3071.61
3032.55
2988.31
2930.64
2790
2790
2790
2790
2790
2790
2790
2790
2790
2790
2790
2790
2790
2790
2790
2790
2790
2790
2790
2790
2790
2790
2790
2790
2790
2790
2790
2790
2790.02
2791.13
2809.83
2886.76
2978.19
3017.59
3027.72
3028.22
3024.21
3019.54
3016.3
3013.78
3011.8
3010.25
3008.92
3007.69
3006.56
3005.6
3004.99
3004.92
3005.5
3006.65
3008.33
3010.49
3013.1
3016.1
3019.41
3023
3026.87
3031.07
3035.63
3040.61
3045.97
3051.63
3057.53
3063.83
3070.74
3078.2
3085.97
3093.82
3101.82
3110.16
3118.96
3128.18
3137.67
3147.29
3156.96
3166.68
3176.53
3186.55
3196.78
3207.25
3217.94
3228.84
3239.9
3251.07
3262.3
3273.53
3284.71
3295.8
3306.74
3317.5
3328.06
3338.36
3348.35
3357.99
3367.2
3375.92
3384.07
3391.54
3398.24
3404.08
3408.88
3412.63
3415.11
3416.32
3416.18
3413.89
3410.23
3404.39
3396.39
3386.23
3373.47
3358.27
3340.24
3319.71
3296.26
3270.03
3240.85
3208.22
3172.8
3132.1
3078.83
2790
2790
2790
2790
2790
2790
2790
2790
2790
2790
2790
2790
2790
2790
2790
2790
2790
2790
2790
2790
2790
2790
2790
2790
2790
2790
2790
2790
2790.01
2790.68
2804.57
2874.38
2971.06
3018.24
3030.65
3031.22
3027.25
3022.81
3020.1
3018.01
3016.23
3014.72
3013.27
3011.85
3010.57
3009.61
3009.13
3009.38
3010.25
3011.69
3013.63
3016
3018.76
3021.86
3025.23
3028.86
3032.78
3037.04
3041.7
3046.81
3052.37
3058.26
3064.43
3070.98
3078.13
3085.88
3093.99
3102.22
3110.59
3119.28
3128.43
3138.02
3147.92
3157.97
3168.09
3178.28
3188.61
3199.13
3209.89
3220.92
3232.21
3243.75
3255.51
3267.43
3279.47
3291.59
3303.72
3315.84
3327.91
3339.89
3351.75
3363.48
3375.02
3386.34
3397.4
3408.13
3418.46
3428.32
3437.63
3446.29
3454.24
3461.33
3467.48
3472.44
3476.26
3478.6
3479.56
3478.63
3475.58
3470.57
3463.01
3453.19
3440.61
3425.57
3407.56
3387
3363.07
3335.67
3304.9
3268.82
3221.26
2790
2790
2790
2790
2790
2790
2790
2790
2790
2790
2790
2790
2790
2790
2790
2790
2790
2790
2790
2790
2790
2790
2790
2790
2790
2790
2790
2790
2790.01
2790.48
2801.48
2865.6
2965.37
3018.99
3033.18
3033.78
3029.96
3025.94
3023.68
3021.81
3020.08
3018.48
3016.9
3015.36
3014.05
3013.23
3013.02
3013.55
3014.7
3016.4
3018.53
3021.04
3023.88
3027
3030.37
3033.99
3037.92
3042.24
3046.99
3052.24
3057.99
3064.12
3070.54
3077.34
3084.73
3092.75
3101.17
3109.74
3118.44
3127.44
3136.9
3146.8
3157.04
3167.45
3177.95
3188.55
3199.28
3210.22
3221.42
3232.9
3244.68
3256.75
3269.06
3281.59
3294.29
3307.12
3320.03
3332.99
3345.96
3358.92
3371.85
3384.72
3397.51
3410.2
3422.73
3435.08
3447.19
3459
3470.43
3481.43
3491.92
3501.81
3511.01
3519.39
3526.82
3533.11
3538.17
3541.84
3543.98
3544.58
3542.71
3539.05
3532.68
3523.74
3511.91
3497.34
3478.92
3457.02
3430.7
3399.46
3357.6
2790
2790
2790
2790
2790
2790
2790
2790
2790
2790
2790
2790
2790
2790
2790
2790
2790
2790
2790
2790
2790
2790
2790
2790
2790
2790
2790
2790
2790
2790.39
2800.09
2860.66
2962.28
3019.94
3035.33
3036.09
3032.55
3028.89
3026.85
3025.02
3023.24
3021.55
3019.91
3018.35
3017.12
3016.5
3016.62
3017.39
3018.78
3020.65
3022.91
3025.5
3028.36
3031.46
3034.8
3038.41
3042.35
3046.73
3051.6
3057.01
3062.95
3069.32
3075.98
3083.02
3090.64
3098.91
3107.61
3116.48
3125.47
3134.74
3144.45
3154.61
3165.12
3175.84
3186.66
3197.58
3208.65
3219.93
3231.48
3243.33
3255.5
3267.98
3280.74
3293.75
3306.97
3320.35
3333.87
3347.49
3361.17
3374.9
3388.66
3402.44
3416.21
3429.96
3443.66
3457.29
3470.8
3484.16
3497.3
3510.2
3522.76
3534.95
3546.68
3557.87
3568.42
3578.21
3587.11
3594.97
3601.54
3606.79
3610.31
3612.17
3612.14
3608.85
3603.73
3595.42
3583.52
3568.07
3546.89
3521.62
3486.2
2790
2790
2790
2790
2790
2790
2790
2790
2790
2790
2790
2790
2790
2790
2790
2790
2790
2790
2790
2790
2790
2790
2790
2790
2790
2790
2790
2790
2790
2790.36
2799.73
2859.59
2961.92
3021.34
3037.34
3038.17
3034.89
3031.42
3029.44
3027.6
3025.77
3024.05
3022.43
3020.92
3019.86
3019.47
3019.82
3020.79
3022.34
3024.32
3026.66
3029.28
3032.14
3035.23
3038.56
3042.18
3046.19
3050.67
3055.68
3061.27
3067.42
3074.01
3080.9
3088.15
3095.98
3104.48
3113.43
3122.55
3131.78
3141.27
3151.19
3161.57
3172.31
3183.26
3194.34
3205.53
3216.87
3228.42
3240.25
3252.39
3264.87
3277.67
3290.78
3304.16
3317.78
3331.6
3345.58
3359.7
3373.92
3388.24
3402.63
3417.08
3431.6
3446.15
3460.72
3475.3
3489.87
3504.38
3518.8
3533.1
3547.23
3561.14
3574.79
3588.11
3601.02
3613.44
3625.29
3636.42
3646.74
3656.04
3664.27
3670.96
3676.35
3679.6
3681.13
3679.86
3675.52
3667.58
3653.09
3635.59
3606.85
2790
2790
2790
2790
2790
2790
2790
2790
2790
2790
2790
2790
2790
2790
2790
2790
2790
2790
2790
2790
2790
2790
2790
2790
2790
2790
2790
2790
2790
2790.38
2800
2860.86
2964.07
3023.77
3039.4
3040.05
3036.89
3033.44
3031.47
3029.61
3027.76
3026.06
3024.5
3023.09
3022.19
3022.03
3022.55
3023.67
3025.33
3027.38
3029.76
3032.41
3035.29
3038.4
3041.76
3045.45
3049.55
3054.17
3059.36
3065.14
3071.49
3078.28
3085.38
3092.83
3100.86
3109.56
3118.71
3128.03
3137.45
3147.13
3157.23
3167.79
3178.71
3189.86
3201.14
3212.54
3224.09
3235.87
3247.92
3260.3
3273.02
3286.08
3299.46
3313.13
3327.06
3341.21
3355.54
3370.03
3384.65
3399.4
3414.25
3429.21
3444.26
3459.39
3474.59
3489.86
3505.17
3520.5
3535.84
3551.14
3566.38
3581.54
3596.56
3611.41
3626.05
3640.43
3654.45
3668.07
3681.18
3693.68
3705.44
3716.28
3726.07
3734.43
3741.34
3746.3
3749.46
3749.72
3744.54
3737.21
3719.69
2790
2790
2790
2790
2790
2790
2790
2790
2790
2790
2790
2790
2790
2790
2790
2790
2790
2790
2790
2790
2790
2790
2790
2790
2790
2790
2790
2790
2790.01
2790.45
2801.25
2866.19
2969.78
3027.03
3041.39
3041.71
3038.55
3035.04
3033.02
3031.16
3029.31
3027.64
3026.18
3024.88
3024.12
3024.12
3024.77
3025.98
3027.72
3029.82
3032.26
3034.96
3037.9
3041.08
3044.53
3048.33
3052.58
3057.37
3062.75
3068.72
3075.26
3082.23
3089.5
3097.12
3105.33
3114.21
3123.52
3133
3142.58
3152.41
3162.66
3173.36
3184.43
3195.74
3207.18
3218.74
3230.46
3242.41
3254.65
3267.22
3280.14
3293.41
3307.01
3320.91
3335.07
3349.46
3364.06
3378.83
3393.75
3408.8
3423.99
3439.3
3454.72
3470.25
3485.89
3501.62
3517.43
3533.31
3549.23
3565.19
3581.15
3597.1
3613
3628.83
3644.54
3660.12
3675.5
3690.68
3705.56
3720.12
3734.22
3747.8
3760.64
3772.67
3783.58
3793.28
3801.34
3807.45
3811.04
3811.11
3807.02
2790
2790
2790
2790
2790
2790
2790
2790
2790
2790
2790
2790
2790
2790
2790
2790
2790
2790
2790
2790
2790
2790
2790
2790
2790
2790
2790
2790
2790.01
2790.62
2803.99
2875.11
2977.7
3030.58
3043.25
3043.1
3039.86
3036.24
3034.16
3032.31
3030.46
3028.83
3027.45
3026.26
3025.59
3025.7
3026.44
3027.74
3029.53
3031.7
3034.21
3037
3040.05
3043.35
3046.94
3050.9
3055.33
3060.31
3065.88
3072.04
3078.75
3085.88
3093.29
3101.07
3109.44
3118.46
3127.91
3137.51
3147.21
3157.18
3167.56
3178.39
3189.59
3201.02
3212.59
3224.28
3236.14
3248.24
3260.63
3273.36
3286.44
3299.88
3313.65
3327.72
3342.07
3356.65
3371.43
3386.4
3401.53
3416.79
3432.21
3447.74
3463.41
3479.19
3495.09
3511.09
3527.2
3543.39
3559.65
3575.96
3592.29
3608.65
3625.03
3641.4
3657.74
3673.95
3690.01
3705.94
3721.63
3737.13
3752.28
3767.06
3781.34
3795.1
3808.13
3820.4
3831.54
3841.48
3849.65
3854.66
3860.24
2790
2790
2790
2790
2790
2790
2790
2790
2790
2790
2790
2790
2790
2790
2790
2790
2790
2790
2790
2790
2790
2790
2790
2790
2790
2790
2790
2790
2790.02
2790.96
2808.51
2887.39
2987.23
3034.16
3044.88
3044.33
3040.83
3037.1
3034.91
3033.06
3031.25
3029.67
3028.37
3027.26
3026.65
3026.8
3027.58
3028.94
3030.79
3033.05
3035.68
3038.6
3041.78
3045.24
3049
3053.15
3057.78
3062.96
3068.71
3075.05
3081.91
3089.15
3096.68
3104.59
3113.12
3122.28
3131.84
3141.53
3151.32
3161.39
3171.89
3182.84
3194.15
3205.68
3217.35
3229.16
3241.14
3253.37
3265.9
3278.76
3291.99
3305.57
3319.48
3333.69
3348.18
3362.89
3377.81
3392.91
3408.17
3423.57
3439.12
3454.78
3470.58
3486.48
3502.5
3518.6
3534.81
3551.11
3567.5
3583.93
3600.36
3616.81
3633.24
3649.68
3666.13
3682.55
3698.96
3715.17
3731.2
3746.79
3761.96
3776.64
3790.72
3804.15
3816.73
3828.37
3838.77
3847.94
3855.23
3860.05
3864.49
2790
2790
2790
2790
2790
2790
2790
2790
2790
2790
2790
2790
2790
2790
2790
2790
2790
2790
2790
2790
2790
2790
2790
2790
2790
2790
2790
2790
2790.03
2791.62
2815.29
2902.67
2997.49
3037.47
3046.14
3045.32
3041.57
3037.66
3035.31
3033.46
3031.7
3030.2
3028.96
3027.91
3027.35
3027.54
3028.34
3029.74
3031.63
3033.97
3036.7
3039.76
3043.12
3046.76
3050.73
3055.08
3059.92
3065.29
3071.24
3077.74
3084.73
3092.08
3099.69
3107.73
3116.39
3125.67
3135.31
3145.06
3154.93
3165.1
3175.7
3186.76
3198.15
3209.76
3221.5
3233.38
3245.46
3257.79
3270.43
3283.41
3296.75
3310.44
3324.46
3338.77
3353.34
3368.14
3383.13
3398.29
3413.61
3429.06
3444.64
3460.33
3476.15
3492.06
3508.09
3524.17
3540.35
3556.57
3572.88
3589.23
3605.68
3622.12
3638.53
3654.77
3670.76
3686.46
3701.82
3716.78
3731.4
3745.49
3759.07
3772.15
3784.48
3795.9
3806.25
3815.28
3822.81
3828.49
3832.03
3833.14
3830.07
2790
2790
2790
2790
2790
2790
2790
2790
2790
2790
2790
2790
2790
2790
2790
2790
2790
2790
2790
2790
2790
2790
2790
2790
2790
2790
2790
2790
2790.06
2792.84
2824.88
2920.2
3007.64
3040.28
3046.93
3045.89
3042.04
3038
3035.4
3033.47
3031.77
3030.38
3029.27
3028.34
3027.82
3028.02
3028.82
3030.24
3032.16
3034.58
3037.41
3040.6
3044.1
3047.92
3052.08
3056.64
3061.67
3067.24
3073.36
3080
3087.11
3094.53
3102.23
3110.38
3119.18
3128.56
3138.26
3148.06
3158
3168.26
3178.97
3190.12
3201.59
3213.26
3225.06
3237
3249.15
3261.57
3274.29
3287.35
3300.78
3314.54
3328.62
3342.99
3357.6
3372.42
3387.42
3402.57
3417.86
3433.28
3448.82
3464.44
3480.16
3495.96
3511.88
3527.95
3544.1
3560.28
3576.39
3592.37
3608.14
3623.69
3639.03
3654.05
3668.77
3683.24
3697.34
3710.95
3724.01
3736.48
3748.11
3758.77
3768.42
3776.79
3783.83
3789.24
3792.95
3794.8
3793.81
3791.01
3783.28
2790
2790
2790
2790
2790
2790
2790
2790
2790
2790
2790
2790
2790
2790
2790
2790
2790
2790
2790
2790
2790
2790
2790
2790
2790
2790
2790
2790
2790.14
2794.99
2837.66
2938.94
3017.03
3042.5
3047.25
3045.98
3042.13
3038.1
3035.25
3033.12
3031.46
3030.19
3029.23
3028.47
3028.07
3028.34
3029.15
3030.56
3032.49
3034.95
3037.88
3041.19
3044.83
3048.81
3053.13
3057.87
3063.1
3068.84
3075.1
3081.86
3089.04
3096.51
3104.28
3112.55
3121.47
3130.94
3140.68
3150.51
3160.52
3170.87
3181.69
3192.92
3204.44
3216.13
3227.96
3239.95
3252.15
3264.61
3277.39
3290.5
3303.96
3317.75
3331.84
3346.2
3360.8
3375.59
3390.54
3405.64
3420.84
3436.15
3451.58
3467.15
3482.79
3498.51
3514.17
3529.74
3545.16
3560.48
3575.57
3590.52
3605.38
3619.97
3634.28
3648.29
3661.86
3674.87
3687.28
3698.99
3709.89
3719.88
3728.86
3736.6
3743.09
3748.13
3751.51
3753.58
3753.63
3751.72
3746.94
3741.04
3730.39
2790
2790
2790
2790
2790
2790
2790
2790
2790
2790
2790
2790
2790
2790
2790
2790
2790
2790
2790
2790
2790
2790
2790
2790
2790
2790
2790
2790
2790.32
2798.56