/*--------------------------------*- C++ -*----------------------------------*\
| =========                 |                                                 |
| \\      /  F ield         | OpenFOAM: The Open Source CFD Toolbox           |
|  \\    /   O peration     | Version:  2406                                  |
|   \\  /    A nd           | Website:  www.openfoam.com                      |
|    \\/     M anipulation  |                                                 |
\*---------------------------------------------------------------------------*/
FoamFile
{
    version     2.0;
    format      ascii;
    arch        "LSB;label=32;scalar=64";
    class       volScalarField;
    location    "0.007";
    object      rho;
}
// * * * * * * * * * * * * * * * * * * * * * * * * * * * * * * * * * * * * * //

dimensions      [1 -3 0 0 0 0 0];

internalField   nonuniform List<scalar> 
78650
(
0.042133
0.042133
0.042133
0.042133
0.042133
0.042133
0.042133
0.042133
0.042133
0.042133
0.042133
0.042133
0.042133
0.042133
0.042133
0.042133
0.042133
0.042133
0.042133
0.042133
0.042133
0.042133
0.0421331
0.0421371
0.0422056
0.0425672
0.0432199
0.043703
0.043836
0.043863
0.0438188
0.0437244
0.0436219
0.0435372
0.0434619
0.0433904
0.043324
0.0432643
0.0432072
0.0431525
0.0430991
0.0430462
0.0429937
0.0429424
0.042893
0.0428459
0.042801
0.0427582
0.0427174
0.0426782
0.0426398
0.0426015
0.0425626
0.0425226
0.0424812
0.042438
0.0423927
0.0423445
0.0422938
0.0422408
0.0421846
0.0421231
0.0420545
0.0419789
0.0418973
0.0418104
0.041717
0.0416152
0.0415033
0.0413802
0.0412452
0.041098
0.0409379
0.0407643
0.0405765
0.0403739
0.040156
0.0399218
0.0396698
0.0393994
0.0391122
0.0388089
0.0384873
0.0381487
0.0377916
0.0374219
0.0370358
0.0366375
0.0362262
0.035806
0.0353785
0.0349501
0.0345181
0.0340864
0.0336657
0.033243
0.0328427
0.0324464
0.0320744
0.031709
0.0313563
0.0310236
0.0306958
0.0303854
0.0300876
0.0298062
0.0295461
0.0292988
0.0290646
0.0288431
0.0286367
0.0284453
0.0282695
0.0281046
0.0279499
0.0277991
0.0276563
0.027519
0.0273911
0.0272781
0.0270966
0.042133
0.042133
0.042133
0.042133
0.042133
0.042133
0.042133
0.042133
0.042133
0.042133
0.042133
0.042133
0.042133
0.042133
0.042133
0.042133
0.042133
0.042133
0.042133
0.042133
0.042133
0.042133
0.0421331
0.042135
0.0421772
0.0424609
0.0430937
0.0436528
0.0438475
0.0438964
0.0438625
0.0437765
0.0436724
0.0435865
0.0435129
0.0434447
0.0433812
0.0433232
0.0432673
0.0432133
0.0431606
0.0431087
0.0430576
0.0430082
0.0429614
0.0429173
0.0428757
0.0428365
0.0427993
0.0427638
0.0427291
0.0426948
0.0426602
0.0426247
0.0425881
0.0425503
0.0425107
0.0424688
0.0424247
0.0423788
0.0423306
0.0422783
0.0422198
0.0421548
0.0420843
0.0420091
0.0419284
0.0418407
0.041744
0.041637
0.0415191
0.0413898
0.0412484
0.0410946
0.0409275
0.0407464
0.0405505
0.0403387
0.04011
0.0398641
0.0396012
0.03932
0.0390187
0.0386992
0.0383613
0.0380098
0.037641
0.0372598
0.0368624
0.0364544
0.036038
0.0356135
0.0351841
0.0347517
0.03432
0.0338901
0.0334653
0.0330514
0.0326428
0.0322606
0.0318842
0.031532
0.0311833
0.0308482
0.0305309
0.0302224
0.0299346
0.0296562
0.0293986
0.0291516
0.0289181
0.0286972
0.02849
0.0282993
0.0281224
0.0279514
0.0277866
0.0276257
0.0274758
0.0273378
0.0271057
0.042133
0.042133
0.042133
0.042133
0.042133
0.042133
0.042133
0.042133
0.042133
0.042133
0.042133
0.042133
0.042133
0.042133
0.042133
0.042133
0.042133
0.042133
0.042133
0.042133
0.042133
0.042133
0.0421331
0.0421339
0.0421583
0.0423687
0.042957
0.043581
0.0438524
0.0439284
0.043901
0.0438259
0.0437231
0.0436367
0.0435646
0.0434998
0.0434389
0.0433825
0.0433275
0.0432742
0.0432222
0.0431713
0.0431218
0.0430747
0.0430306
0.0429897
0.0429515
0.0429158
0.0428822
0.0428502
0.0428192
0.0427888
0.0427582
0.0427271
0.0426953
0.0426627
0.0426288
0.0425931
0.0425555
0.0425165
0.0424761
0.0424324
0.0423836
0.0423287
0.0422687
0.0422047
0.0421362
0.0420617
0.0419792
0.0418874
0.0417854
0.0416728
0.0415491
0.0414139
0.0412665
0.0411058
0.040931
0.0407416
0.0405366
0.0403149
0.0400758
0.0398179
0.0395409
0.0392467
0.0389352
0.0386084
0.0382633
0.037904
0.0375261
0.0371361
0.036732
0.0363177
0.035895
0.0354642
0.0350278
0.0345901
0.0341461
0.0337167
0.0332804
0.032869
0.0324613
0.032065
0.0316912
0.0313212
0.0309818
0.0306546
0.0303451
0.03005
0.0297757
0.0295192
0.0292806
0.0290479
0.0288255
0.0286067
0.0284008
0.028205
0.028017
0.0278352
0.0276633
0.0275072
0.0272428
0.042133
0.042133
0.042133
0.042133
0.042133
0.042133
0.042133
0.042133
0.042133
0.042133
0.042133
0.042133
0.042133
0.042133
0.042133
0.042133
0.042133
0.042133
0.042133
0.042133
0.042133
0.042133
0.042133
0.0421334
0.0421462
0.042291
0.0428086
0.0434844
0.0438486
0.0439567
0.0439357
0.0438755
0.0437773
0.0436908
0.0436196
0.0435577
0.0434991
0.0434435
0.0433888
0.0433358
0.0432845
0.0432348
0.0431872
0.0431426
0.0431014
0.0430637
0.0430288
0.0429964
0.0429661
0.0429375
0.0429099
0.042883
0.0428562
0.0428293
0.0428021
0.0427744
0.042746
0.0427163
0.0426851
0.0426528
0.0426198
0.0425846
0.0425452
0.0425005
0.0424509
0.0423978
0.0423412
0.0422797
0.0422115
0.0421349
0.0420491
0.0419536
0.0418479
0.0417317
0.0416042
0.0414645
0.0413118
0.0411454
0.0409641
0.0407665
0.0405515
0.0403185
0.0400675
0.0397995
0.0395131
0.0392088
0.0388851
0.0385454
0.0381857
0.0378125
0.0374232
0.0370241
0.0366131
0.0361928
0.0357667
0.0353339
0.0349017
0.034467
0.0340353
0.0336027
0.0331946
0.032779
0.0323886
0.0319868
0.0316016
0.0312279
0.030865
0.0305232
0.0301996
0.0299002
0.0296244
0.0293698
0.0291312
0.0288991
0.028682
0.0284726
0.0282754
0.0280802
0.0278917
0.0277173
0.0274081
0.042133
0.042133
0.042133
0.042133
0.042133
0.042133
0.042133
0.042133
0.042133
0.042133
0.042133
0.042133
0.042133
0.042133
0.042133
0.042133
0.042133
0.042133
0.042133
0.042133
0.042133
0.042133
0.042133
0.0421332
0.0421393
0.042231
0.0426593
0.0433609
0.0438248
0.0439785
0.0439705
0.0439251
0.0438326
0.0437472
0.0436765
0.0436175
0.0435605
0.0435052
0.0434506
0.043398
0.0433475
0.0432994
0.043254
0.0432121
0.043174
0.0431394
0.0431078
0.0430786
0.0430515
0.0430261
0.0430018
0.0429783
0.0429552
0.0429324
0.0429096
0.0428868
0.0428638
0.04284
0.042815
0.0427894
0.0427633
0.0427362
0.0427059
0.0426709
0.0426315
0.0425887
0.0425433
0.042494
0.0424391
0.0423769
0.0423063
0.0422266
0.0421377
0.0420392
0.0419304
0.0418104
0.0416786
0.0415341
0.0413756
0.0412017
0.0410118
0.0408052
0.0405815
0.0403402
0.0400795
0.0398
0.0395015
0.039186
0.0388504
0.0384992
0.0381293
0.0377466
0.0373474
0.0369365
0.036514
0.0360833
0.0356476
0.0352004
0.0347605
0.0343166
0.0338925
0.0334711
0.0330629
0.0326632
0.0322642
0.0318831
0.0315098
0.0311534
0.0308078
0.0304719
0.0301516
0.0298521
0.0295753
0.0293107
0.029059
0.0288137
0.0285873
0.0283688
0.028159
0.0279609
0.0275866
0.042133
0.042133
0.042133
0.042133
0.042133
0.042133
0.042133
0.042133
0.042133
0.042133
0.042133
0.042133
0.042133
0.042133
0.042133
0.042133
0.042133
0.042133
0.042133
0.042133
0.042133
0.042133
0.042133
0.0421331
0.0421357
0.0421881
0.0425163
0.043206
0.0437723
0.0439927
0.0440071
0.0439729
0.0438891
0.0438079
0.0437378
0.0436803
0.0436236
0.0435678
0.0435133
0.0434614
0.0434124
0.0433662
0.0433233
0.0432841
0.043249
0.0432175
0.0431889
0.0431627
0.0431385
0.0431159
0.0430945
0.0430742
0.0430546
0.0430357
0.0430172
0.0429991
0.0429813
0.0429633
0.0429446
0.0429253
0.0429061
0.0428866
0.0428651
0.0428397
0.0428102
0.0427777
0.0427431
0.0427058
0.042664
0.0426161
0.0425607
0.042497
0.042425
0.0423444
0.0422546
0.0421548
0.0420442
0.0419219
0.0417866
0.0416372
0.0414729
0.0412925
0.0410948
0.040879
0.040644
0.0403909
0.0401196
0.0398305
0.0395211
0.0391941
0.0388472
0.0384857
0.0381059
0.037714
0.0373063
0.0368874
0.0364583
0.0360219
0.0355766
0.0351273
0.0346715
0.034227
0.0337821
0.0333579
0.0329245
0.0325104
0.0321085
0.0317303
0.0313687
0.0310196
0.0306858
0.0303695
0.0300809
0.0298062
0.0295465
0.0292795
0.0290303
0.028794
0.0285774
0.0283828
0.0280626
0.042133
0.042133
0.042133
0.042133
0.042133
0.042133
0.042133
0.042133
0.042133
0.042133
0.042133
0.042133
0.042133
0.042133
0.042133
0.042133
0.042133
0.042133
0.042133
0.042133
0.042133
0.042133
0.042133
0.0421331
0.042134
0.0421608
0.0423907
0.0430276
0.0436886
0.0439948
0.044041
0.0440183
0.0439491
0.0438728
0.0438018
0.0437439
0.0436867
0.0436305
0.0435765
0.0435258
0.0434786
0.0434347
0.0433944
0.0433581
0.0433259
0.0432973
0.0432715
0.043248
0.0432266
0.0432067
0.0431882
0.0431709
0.0431548
0.0431397
0.0431255
0.0431121
0.0430994
0.043087
0.0430744
0.0430615
0.0430489
0.0430367
0.0430234
0.0430073
0.0429875
0.0429647
0.0429404
0.0429141
0.0428846
0.04285
0.0428088
0.0427601
0.0427039
0.0426398
0.0425676
0.0424864
0.0423956
0.0422943
0.0421812
0.0420554
0.0419158
0.0417608
0.0415893
0.0414011
0.0411955
0.0409726
0.0407317
0.0404722
0.0401924
0.039894
0.0395752
0.0392397
0.0388849
0.0385154
0.0381273
0.0377271
0.0373134
0.0368897
0.0364562
0.036012
0.0355618
0.035115
0.0346692
0.0342298
0.0337911
0.0333539
0.0329222
0.0324893
0.0320709
0.0316682
0.031284
0.0309108
0.0305627
0.0302288
0.0299177
0.0296143
0.0293175
0.0290291
0.0287534
0.0285094
0.0280882
0.042133
0.042133
0.042133
0.042133
0.042133
0.042133
0.042133
0.042133
0.042133
0.042133
0.042133
0.042133
0.042133
0.042133
0.042133
0.042133
0.042133
0.042133
0.042133
0.042133
0.042133
0.042133
0.042133
0.042133
0.0421334
0.0421453
0.04229
0.0428346
0.0435626
0.0439831
0.0440674
0.0440659
0.0440139
0.0439389
0.0438656
0.043807
0.0437501
0.0436941
0.0436411
0.0435922
0.0435472
0.0435058
0.0434682
0.0434348
0.0434053
0.0433793
0.0433559
0.0433348
0.0433157
0.0432982
0.0432823
0.0432679
0.043255
0.0432437
0.0432337
0.0432248
0.0432172
0.0432103
0.0432037
0.043197
0.0431908
0.0431855
0.04318
0.0431729
0.0431625
0.0431494
0.043135
0.0431195
0.0431018
0.0430803
0.0430531
0.0430193
0.0429788
0.0429313
0.0428767
0.0428142
0.0427434
0.0426631
0.0425723
0.0424702
0.0423552
0.0422257
0.0420811
0.0419209
0.041744
0.0415495
0.0413364
0.0411046
0.040853
0.0405825
0.0402912
0.0399814
0.0396521
0.0393064
0.0389406
0.03856
0.0381622
0.0377526
0.0373296
0.036895
0.0364506
0.0359975
0.0355489
0.0350985
0.0346642
0.0342219
0.0337952
0.0333526
0.0329368
0.0325346
0.0321543
0.031776
0.0314126
0.031057
0.0307257
0.0303974
0.0300963
0.0297982
0.0295047
0.0292233
0.0287218
0.042133
0.042133
0.042133
0.042133
0.042133
0.042133
0.042133
0.042133
0.042133
0.042133
0.042133
0.042133
0.042133
0.042133
0.042133
0.042133
0.042133
0.042133
0.042133
0.042133
0.042133
0.042133
0.042133
0.042133
0.0421331
0.0421378
0.0422184
0.0426427
0.0433966
0.0439381
0.0440862
0.0441161
0.0440757
0.0440028
0.0439291
0.0438707
0.0438143
0.0437588
0.043707
0.04366
0.0436174
0.0435787
0.0435439
0.0435132
0.0434862
0.0434624
0.0434411
0.043422
0.043405
0.0433898
0.0433764
0.0433648
0.0433553
0.0433478
0.0433419
0.0433376
0.043335
0.0433335
0.0433327
0.0433322
0.0433323
0.0433335
0.0433354
0.0433363
0.0433353
0.0433315
0.0433266
0.0433211
0.0433143
0.0433049
0.0432908
0.0432709
0.043245
0.0432127
0.0431743
0.0431292
0.0430767
0.0430161
0.0429461
0.0428661
0.0427746
0.0426702
0.0425521
0.0424196
0.042271
0.0421056
0.0419228
0.0417227
0.0415042
0.0412669
0.0410085
0.0407306
0.0404325
0.0401158
0.0397773
0.0394212
0.0390452
0.0386546
0.0382461
0.0378232
0.037385
0.0369363
0.036479
0.0360196
0.0355584
0.0350994
0.0346401
0.0341745
0.0337115
0.0332683
0.0328363
0.0324148
0.0320079
0.03162
0.0312526
0.0309003
0.0305719
0.0302522
0.0299574
0.0296954
0.029212
0.042133
0.042133
0.042133
0.042133
0.042133
0.042133
0.042133
0.042133
0.042133
0.042133
0.042133
0.042133
0.042133
0.042133
0.042133
0.042133
0.042133
0.042133
0.042133
0.042133
0.042133
0.042133
0.042133
0.042133
0.0421331
0.0421346
0.0421738
0.0424706
0.0431909
0.0438535
0.0440998
0.0441605
0.0441328
0.0440671
0.0439935
0.0439345
0.043879
0.0438245
0.0437745
0.0437303
0.0436906
0.0436547
0.0436224
0.0435939
0.0435687
0.0435465
0.0435267
0.0435092
0.043494
0.0434809
0.0434699
0.0434613
0.043455
0.0434513
0.0434497
0.0434497
0.043452
0.0434558
0.0434607
0.0434661
0.0434721
0.0434796
0.0434886
0.0434974
0.0435045
0.04351
0.0435144
0.0435186
0.0435223
0.0435242
0.0435229
0.0435166
0.0435053
0.0434882
0.0434657
0.0434376
0.0434033
0.043362
0.0433128
0.0432548
0.0431866
0.0431069
0.0430149
0.0429091
0.0427882
0.0426517
0.0424991
0.0423298
0.0421426
0.0419365
0.0417098
0.0414636
0.0411975
0.0409123
0.0406064
0.0402825
0.0399379
0.0395768
0.0391973
0.0388034
0.0383919
0.0379662
0.0375269
0.0370774
0.0366219
0.0361619
0.0357002
0.0352499
0.0347771
0.0343131
0.0338505
0.0334021
0.032957
0.0325283
0.0320965
0.0316877
0.0312792
0.0308932
0.0305198
0.0301851
0.0295962
0.042133
0.042133
0.042133
0.042133
0.042133
0.042133
0.042133
0.042133
0.042133
0.042133
0.042133
0.042133
0.042133
0.042133
0.042133
0.042133
0.042133
0.042133
0.042133
0.042133
0.042133
0.042133
0.042133
0.042133
0.042133
0.0421335
0.0421499
0.0423334
0.0429611
0.0437229
0.0440957
0.0441957
0.0441853
0.044131
0.0440596
0.0439988
0.0439443
0.0438915
0.0438443
0.0438031
0.043766
0.0437321
0.0437016
0.0436744
0.0436506
0.0436297
0.0436113
0.0435954
0.043582
0.043571
0.0435626
0.0435569
0.0435541
0.0435539
0.0435567
0.0435614
0.0435681
0.0435769
0.0435874
0.0435985
0.0436103
0.0436237
0.0436392
0.0436555
0.0436709
0.0436847
0.0436978
0.0437112
0.0437249
0.0437375
0.0437474
0.0437536
0.0437556
0.043753
0.0437451
0.0437328
0.0437152
0.0436916
0.0436616
0.0436239
0.0435774
0.0435211
0.0434538
0.043374
0.0432808
0.0431738
0.043052
0.0429141
0.0427595
0.0425872
0.0423956
0.042185
0.0419544
0.0417043
0.0414332
0.0411418
0.0408273
0.0404934
0.0401393
0.0397674
0.0393735
0.0389617
0.0385327
0.0380928
0.0376434
0.0371875
0.0367286
0.0362663
0.0358072
0.0353324
0.0348642
0.0344037
0.0339592
0.0335253
0.0330947
0.0326764
0.0322697
0.0318674
0.0314831
0.0311224
0.0304733
0.042133
0.042133
0.042133
0.042133
0.042133
0.042133
0.042133
0.042133
0.042133
0.042133
0.042133
0.042133
0.042133
0.042133
0.042133
0.042133
0.042133
0.042133
0.042133
0.042133
0.042133
0.042133
0.042133
0.042133
0.042133
0.0421332
0.042139
0.0422381
0.0427296
0.0435415
0.0440633
0.0442244
0.0442372
0.044193
0.0441247
0.0440625
0.0440107
0.0439615
0.0439174
0.0438784
0.0438426
0.0438097
0.0437802
0.0437541
0.0437314
0.0437117
0.0436946
0.0436804
0.0436688
0.0436601
0.0436543
0.0436517
0.0436522
0.0436562
0.0436627
0.0436716
0.0436828
0.0436964
0.043712
0.0437287
0.0437459
0.0437648
0.0437864
0.0438097
0.0438329
0.0438548
0.0438761
0.0438981
0.0439211
0.043944
0.0439653
0.0439834
0.0439978
0.0440084
0.0440151
0.044018
0.0440169
0.0440105
0.0439993
0.0439817
0.0439562
0.0439226
0.0438793
0.0438248
0.0437584
0.0436795
0.0435866
0.0434786
0.0433551
0.0432153
0.0430576
0.0428816
0.0426859
0.0424706
0.0422347
0.0419782
0.0416992
0.0414005
0.041081
0.0407422
0.0403812
0.0400013
0.0396015
0.0391863
0.0387544
0.0383093
0.037851
0.037384
0.0369079
0.0364246
0.0359344
0.0354422
0.0349637
0.0344887
0.0340341
0.03356
0.0331265
0.0326775
0.0322757
0.031912
0.0312453
0.042133
0.042133
0.042133
0.042133
0.042133
0.042133
0.042133
0.042133
0.042133
0.042133
0.042133
0.042133
0.042133
0.042133
0.042133
0.042133
0.042133
0.042133
0.042133
0.042133
0.042133
0.042133
0.042133
0.042133
0.042133
0.0421331
0.0421349
0.042181
0.0425233
0.0433144
0.043985
0.0442393
0.0442822
0.0442488
0.0441885
0.0441275
0.0440795
0.0440336
0.043991
0.0439523
0.0439169
0.0438849
0.0438567
0.0438319
0.0438105
0.043792
0.0437763
0.0437637
0.0437541
0.0437477
0.0437448
0.0437452
0.0437494
0.0437567
0.0437672
0.0437802
0.0437957
0.0438137
0.0438341
0.043856
0.0438785
0.0439026
0.0439297
0.0439595
0.04399
0.0440197
0.0440488
0.0440788
0.0441103
0.0441427
0.0441743
0.0442035
0.0442298
0.0442529
0.0442727
0.0442893
0.0443027
0.0443122
0.0443176
0.0443188
0.0443126
0.0443003
0.0442797
0.044249
0.0442085
0.0441564
0.044092
0.0440143
0.0439228
0.0438165
0.043694
0.0435542
0.0433953
0.0432175
0.0430199
0.0428024
0.0425632
0.0423037
0.0420218
0.0417195
0.041395
0.0410499
0.040682
0.0402948
0.0398875
0.0394637
0.0390223
0.0385695
0.0381073
0.0376377
0.037158
0.0366686
0.0361725
0.0356817
0.0351975
0.034704
0.0342215
0.0337073
0.0332217
0.0327675
0.0319885
0.042133
0.042133
0.042133
0.042133
0.042133
0.042133
0.042133
0.042133
0.042133
0.042133
0.042133
0.042133
0.042133
0.042133
0.042133
0.042133
0.042133
0.042133
0.042133
0.042133
0.042133
0.042133
0.042133
0.042133
0.042133
0.042133
0.0421335
0.042152
0.0423617
0.0430606
0.0438561
0.0442392
0.0443158
0.0442998
0.0442547
0.0441973
0.0441503
0.0441039
0.044061
0.044023
0.0439891
0.0439588
0.0439318
0.043908
0.0438874
0.0438698
0.0438556
0.0438448
0.0438375
0.043834
0.0438338
0.0438377
0.043845
0.0438559
0.0438699
0.0438868
0.0439061
0.0439282
0.043953
0.0439797
0.0440073
0.0440362
0.0440683
0.0441039
0.0441413
0.0441784
0.044215
0.0442524
0.0442918
0.0443329
0.0443741
0.0444138
0.0444512
0.044486
0.0445183
0.0445483
0.0445758
0.0446007
0.044622
0.0446396
0.0446525
0.0446597
0.0446613
0.0446533
0.0446376
0.0446112
0.0445734
0.0445244
0.0444626
0.0443872
0.0442973
0.0441913
0.0440679
0.0439268
0.0437675
0.0435894
0.0433909
0.0431718
0.0429299
0.0426674
0.0423829
0.0420766
0.0417455
0.0413922
0.0410165
0.0406215
0.040206
0.0397749
0.0393292
0.0388751
0.0384084
0.0379289
0.0374365
0.0369391
0.0364488
0.0359663
0.0354846
0.0349921
0.0344995
0.0340484
0.0332412
0.042133
0.042133
0.042133
0.042133
0.042133
0.042133
0.042133
0.042133
0.042133
0.042133
0.042133
0.042133
0.042133
0.042133
0.042133
0.042133
0.042133
0.042133
0.042133
0.042133
0.042133
0.042133
0.042133
0.042133
0.042133
0.042133
0.0421332
0.0421396
0.0422522
0.0428067
0.0436756
0.0442117
0.0443371
0.0443555
0.0443218
0.0442657
0.0442151
0.0441676
0.0441269
0.0440916
0.0440599
0.044031
0.0440049
0.0439815
0.0439616
0.0439452
0.0439327
0.0439241
0.0439195
0.0439186
0.043922
0.0439284
0.0439389
0.0439529
0.0439702
0.0439904
0.0440132
0.0440389
0.0440677
0.0440989
0.0441312
0.0441649
0.0442016
0.0442425
0.0442863
0.0443304
0.044374
0.0444184
0.044465
0.0445139
0.0445639
0.0446132
0.0446609
0.0447065
0.0447502
0.0447921
0.0448324
0.0448708
0.044907
0.0449405
0.0449704
0.0449956
0.0450156
0.0450291
0.0450355
0.0450349
0.0450223
0.0450015
0.0449689
0.0449242
0.0448669
0.0447954
0.0447085
0.0446055
0.0444855
0.0443473
0.0441893
0.0440106
0.0438095
0.0435875
0.0433428
0.0430754
0.0427831
0.042468
0.0421298
0.0417709
0.0413906
0.0409902
0.0405684
0.0401313
0.0396771
0.0392109
0.0387267
0.0382288
0.0377191
0.0372076
0.0366944
0.0362051
0.0356507
0.0351593
0.0343151
0.042133
0.042133
0.042133
0.042133
0.042133
0.042133
0.042133
0.042133
0.042133
0.042133
0.042133
0.042133
0.042133
0.042133
0.042133
0.042133
0.042133
0.042133
0.042133
0.042133
0.042133
0.042133
0.042133
0.042133
0.042133
0.042133
0.0421331
0.042135
0.0421882
0.0425828
0.0434507
0.0441413
0.0443525
0.04441
0.0443824
0.0443267
0.0442738
0.0442292
0.0441936
0.0441609
0.0441301
0.0441011
0.0440745
0.0440514
0.0440329
0.0440187
0.0440089
0.0440029
0.044001
0.044003
0.0440086
0.0440176
0.0440306
0.0440473
0.0440674
0.0440905
0.0441165
0.0441455
0.0441779
0.0442132
0.04425
0.0442881
0.0443291
0.0443747
0.0444241
0.0444747
0.044525
0.0445759
0.044629
0.044685
0.0447429
0.0448011
0.0448583
0.044914
0.0449683
0.0450215
0.0450736
0.0451247
0.0451745
0.0452225
0.0452681
0.0453105
0.045349
0.0453823
0.0454092
0.0454294
0.0454419
0.0454465
0.0454412
0.0454248
0.0453978
0.0453576
0.0453045
0.0452366
0.0451527
0.045052
0.0449333
0.044796
0.0446382
0.0444607
0.0442614
0.0440412
0.0437984
0.0435335
0.0432444
0.0429324
0.0425967
0.0422368
0.0418522
0.0414463
0.0410203
0.0405806
0.0401214
0.039647
0.0391508
0.0386423
0.03812
0.0375901
0.0370448
0.0365253
0.0356607
0.042133
0.042133
0.042133
0.042133
0.042133
0.042133
0.042133
0.042133
0.042133
0.042133
0.042133
0.042133
0.042133
0.042133
0.042133
0.042133
0.042133
0.042133
0.042133
0.042133
0.042133
0.042133
0.042133
0.042133
0.042133
0.042133
0.042133
0.0421336
0.0421559
0.0424087
0.0432014
0.0440273
0.0443616
0.0444522
0.0444332
0.0443821
0.0443316
0.0442922
0.0442604
0.0442279
0.0441959
0.0441659
0.0441395
0.0441181
0.0441024
0.0440914
0.0440843
0.0440809
0.0440809
0.044085
0.0440921
0.044103
0.044118
0.044137
0.0441596
0.0441855
0.0442145
0.0442467
0.0442824
0.0443214
0.0443625
0.0444048
0.0444499
0.0444997
0.0445542
0.0446107
0.0446673
0.0447243
0.0447834
0.0448457
0.0449107
0.0449768
0.0450428
0.0451078
0.0451717
0.045235
0.0452977
0.0453601
0.0454221
0.0454832
0.0455428
0.0456005
0.0456553
0.0457063
0.0457527
0.0457937
0.0458281
0.0458554
0.0458749
0.0458858
0.0458887
0.0458792
0.0458595
0.0458265
0.0457785
0.0457162
0.0456378
0.0455427
0.045429
0.0452961
0.0451423
0.044968
0.0447712
0.0445511
0.044305
0.0440349
0.0437398
0.0434207
0.0430781
0.0427121
0.0423246
0.0419184
0.0414929
0.0410525
0.040589
0.0401119
0.0396099
0.0391037
0.0385679
0.0380445
0.0372091
0.042133
0.042133
0.042133
0.042133
0.042133
0.042133
0.042133
0.042133
0.042133
0.042133
0.042133
0.042133
0.042133
0.042133
0.042133
0.042133
0.042133
0.042133
0.042133
0.042133
0.042133
0.042133
0.042133
0.042133
0.042133
0.042133
0.042133
0.0421332
0.0421418
0.0422892
0.0429549
0.0438758
0.0443544
0.0444824
0.0444748
0.0444374
0.0443921
0.0443551
0.0443238
0.0442893
0.0442556
0.0442259
0.0442017
0.0441839
0.0441718
0.0441639
0.0441588
0.0441569
0.0441575
0.0441626
0.0441706
0.0441831
0.0442
0.0442214
0.0442466
0.0442753
0.0443072
0.0443425
0.0443813
0.0444237
0.0444686
0.044515
0.0445638
0.0446174
0.0446762
0.0447381
0.0448004
0.044863
0.0449276
0.0449955
0.0450668
0.0451402
0.0452141
0.0452875
0.0453603
0.0454327
0.0455051
0.0455777
0.0456506
0.0457235
0.0457959
0.0458674
0.0459371
0.0460043
0.046068
0.0461276
0.0461822
0.0462311
0.0462737
0.0463088
0.0463361
0.0463546
0.0463638
0.0463641
0.0463483
0.0463224
0.0462814
0.0462252
0.0461528
0.0460625
0.0459528
0.0458233
0.0456722
0.0454989
0.0453013
0.0450809
0.0448353
0.0445662
0.0442724
0.0439529
0.0436084
0.0432382
0.0428463
0.042433
0.0419961
0.0415386
0.0410499
0.0405503
0.0400067
0.0394611
0.0386631
0.042133
0.042133
0.042133
0.042133
0.042133
0.042133
0.042133
0.042133
0.042133
0.042133
0.042133
0.042133
0.042133
0.042133
0.042133
0.042133
0.042133
0.042133
0.042133
0.042133
0.042133
0.042133
0.042133
0.042133
0.042133
0.042133
0.042133
0.0421331
0.0421362
0.0422162
0.0427361
0.043697
0.0443243
0.0445006
0.0445153
0.044494
0.0444522
0.0444139
0.0443799
0.0443434
0.0443101
0.0442832
0.0442631
0.044249
0.0442398
0.0442333
0.0442286
0.0442267
0.0442275
0.044233
0.0442423
0.0442566
0.0442759
0.0443
0.044328
0.0443595
0.0443942
0.0444323
0.0444741
0.0445195
0.0445678
0.0446178
0.0446701
0.0447271
0.0447897
0.0448562
0.0449237
0.0449915
0.045061
0.0451341
0.0452111
0.0452909
0.0453719
0.0454528
0.0455335
0.0456141
0.045695
0.0457767
0.0458592
0.0459425
0.0460262
0.0461098
0.0461926
0.046274
0.0463532
0.0464293
0.0465018
0.0465699
0.0466332
0.0466909
0.0467423
0.0467868
0.046823
0.0468509
0.0468688
0.0468766
0.0468727
0.0468534
0.0468212
0.0467718
0.0467052
0.0466204
0.0465159
0.0463913
0.0462451
0.0460772
0.0458845
0.0456689
0.0454278
0.0451617
0.0448702
0.0445526
0.0442125
0.0438473
0.0434617
0.0430495
0.0426118
0.0421457
0.041646
0.0410992
0.0403689
0.042133
0.042133
0.042133
0.042133
0.042133
0.042133
0.042133
0.042133
0.042133
0.042133
0.042133
0.042133
0.042133
0.042133
0.042133
0.042133
0.042133
0.042133
0.042133
0.042133
0.042133
0.042133
0.042133
0.042133
0.042133
0.042133
0.042133
0.0421331
0.0421342
0.0421759
0.0425603
0.0435059
0.0442686
0.0445106
0.0445557
0.0445484
0.0445078
0.0444651
0.0444281
0.0443922
0.0443624
0.04434
0.0443237
0.044312
0.0443036
0.0442968
0.0442911
0.0442883
0.0442901
0.0442966
0.044308
0.0443249
0.044347
0.0443739
0.0444046
0.0444386
0.0444758
0.0445164
0.0445605
0.0446085
0.0446597
0.0447129
0.0447684
0.0448283
0.0448942
0.0449647
0.0450368
0.0451093
0.0451835
0.0452613
0.0453433
0.0454288
0.0455161
0.0456038
0.0456915
0.0457793
0.0458678
0.0459575
0.0460485
0.0461409
0.0462344
0.0463287
0.046423
0.0465169
0.0466096
0.0467005
0.0467887
0.0468739
0.0469554
0.0470326
0.0471051
0.0471721
0.0472331
0.0472871
0.0473331
0.0473697
0.0473966
0.0474124
0.0474176
0.0474075
0.0473836
0.0473441
0.0472865
0.0472113
0.0471157
0.0469991
0.0468585
0.046695
0.0465051
0.0462907
0.0460494
0.0457822
0.045489
0.0451692
0.0448261
0.0444533
0.0440549
0.0436232
0.0431607
0.0426415
0.0419639
0.042133
0.042133
0.042133
0.042133
0.042133
0.042133
0.042133
0.042133
0.042133
0.042133
0.042133
0.042133
0.042133
0.042133
0.042133
0.042133
0.042133
0.042133
0.042133
0.042133
0.042133
0.042133
0.042133
0.042133
0.042133
0.042133
0.042133
0.042133
0.0421335
0.0421552
0.0424313
0.0433202
0.0441947
0.0445178
0.0445946
0.0445962
0.0445552
0.044508
0.0444707
0.0444389
0.044414
0.0443957
0.0443816
0.0443702
0.0443606
0.0443521
0.0443455
0.0443426
0.0443462
0.0443551
0.0443694
0.0443892
0.044414
0.0444434
0.0444763
0.0445123
0.0445514
0.0445938
0.0446398
0.0446898
0.0447433
0.0447994
0.0448578
0.0449204
0.0449891
0.0450631
0.0451395
0.0452164
0.0452949
0.0453769
0.0454635
0.045554
0.0456468
0.0457405
0.0458343
0.0459285
0.0460237
0.0461202
0.0462186
0.0463188
0.0464209
0.0465242
0.0466285
0.0467331
0.0468374
0.0469408
0.0470427
0.0471426
0.0472399
0.0473343
0.0474253
0.0475123
0.0475948
0.0476721
0.0477435
0.0478079
0.0478646
0.0479119
0.0479496
0.0479761
0.0479907
0.0479937
0.0479772
0.0479467
0.0478962
0.0478256
0.0477343
0.0476209
0.047483
0.0473222
0.047135
0.0469231
0.0466843
0.0464206
0.0461312
0.0458122
0.0454654
0.0450817
0.0446664
0.0441928
0.0435815
0.042133
0.042133
0.042133
0.042133
0.042133
0.042133
0.042133
0.042133
0.042133
0.042133
0.042133
0.042133
0.042133
0.042133
0.042133
0.042133
0.042133
0.042133
0.042133
0.042133
0.042133
0.042133
0.042133
0.042133
0.042133
0.042133
0.042133
0.042133
0.0421333
0.042145
0.0423436
0.0431565
0.0441147
0.0445248
0.04463
0.0446351
0.0445934
0.0445448
0.0445111
0.0444849
0.0444642
0.0444481
0.0444342
0.0444213
0.0444096
0.0443995
0.0443931
0.0443924
0.0443983
0.0444103
0.0444277
0.0444502
0.0444773
0.0445084
0.0445428
0.0445801
0.0446203
0.0446638
0.0447112
0.0447628
0.0448184
0.044877
0.0449381
0.0450033
0.0450747
0.0451519
0.045232
0.0453131
0.0453956
0.0454815
0.0455721
0.045667
0.0457646
0.0458634
0.0459625
0.0460623
0.0461631
0.0462656
0.0463702
0.0464772
0.0465863
0.0466974
0.0468101
0.0469237
0.0470378
0.0471519
0.0472653
0.0473776
0.0474884
0.0475973
0.0477039
0.0478079
0.0479087
0.0480058
0.0480986
0.0481864
0.0482683
0.0483434
0.0484108
0.0484694
0.0485176
0.0485553
0.0485802
0.0485924
0.0485911
0.0485683
0.0485317
0.0484733
0.0483933
0.0482915
0.0481635
0.0480109
0.0478297
0.0476233
0.0473872
0.0471218
0.0468234
0.0464849
0.046112
0.045681
0.0451238
0.042133
0.042133
0.042133
0.042133
0.042133
0.042133
0.042133
0.042133
0.042133
0.042133
0.042133
0.042133
0.042133
0.042133
0.042133
0.042133
0.042133
0.042133
0.042133
0.042133
0.042133
0.042133
0.042133
0.042133
0.042133
0.042133
0.042133
0.042133
0.0421332
0.0421403
0.0422877
0.0430261
0.0440403
0.0445315
0.0446604
0.0446661
0.0446249
0.0445787
0.0445506
0.0445288
0.0445103
0.0444945
0.0444794
0.0444646
0.0444512
0.0444412
0.0444361
0.0444388
0.0444477
0.0444627
0.0444828
0.0445075
0.0445361
0.0445683
0.0446033
0.0446409
0.0446816
0.0447258
0.0447742
0.0448271
0.0448846
0.0449457
0.0450094
0.0450772
0.0451511
0.0452312
0.0453148
0.0453997
0.045486
0.0455754
0.0456696
0.0457682
0.0458698
0.0459729
0.0460766
0.0461811
0.0462868
0.0463943
0.0465042
0.0466167
0.0467318
0.0468493
0.0469688
0.0470899
0.0472121
0.0473349
0.0474579
0.0475804
0.0477023
0.0478233
0.047943
0.0480611
0.0481772
0.0482911
0.0484021
0.0485098
0.0486134
0.0487122
0.0488054
0.0488921
0.0489715
0.0490424
0.0491038
0.0491534
0.0491916
0.0492151
0.0492248
0.0492156
0.0491855
0.0491359
0.0490607
0.0489629
0.0488376
0.0486878
0.0485082
0.0483024
0.04806
0.047778
0.0474561
0.0470768
0.0465846
0.042133
0.042133
0.042133
0.042133
0.042133
0.042133
0.042133
0.042133
0.042133
0.042133
0.042133
0.042133
0.042133
0.042133
0.042133
0.042133
0.042133
0.042133
0.042133
0.042133
0.042133
0.042133
0.042133
0.042133
0.042133
0.042133
0.042133
0.042133
0.0421331
0.0421381
0.042255
0.0429335
0.0439809
0.0445393
0.0446865
0.0446927
0.0446531
0.0446112
0.0445877
0.0445682
0.0445502
0.0445336
0.0445171
0.0445011
0.0444874
0.0444788
0.0444766
0.0444822
0.044494
0.0445116
0.0445338
0.0445599
0.0445893
0.0446217
0.0446566
0.0446942
0.044735
0.0447797
0.044829
0.0448834
0.0449428
0.0450063
0.0450727
0.0451429
0.0452192
0.0453021
0.0453889
0.0454772
0.0455668
0.0456595
0.0457566
0.0458584
0.0459634
0.0460701
0.0461777
0.0462861
0.0463959
0.0465076
0.0466218
0.0467388
0.0468587
0.0469814
0.0471065
0.0472336
0.0473623
0.0474922
0.0476228
0.0477536
0.0478845
0.0480151
0.0481453
0.0482747
0.0484032
0.0485305
0.0486562
0.0487798
0.0489009
0.0490189
0.0491331
0.0492428
0.0493473
0.0494459
0.0495374
0.0496207
0.0496947
0.0497572
0.0498076
0.0498442
0.0498657
0.0498719
0.0498535
0.0498175
0.0497545
0.0496664
0.0495496
0.049405
0.0492199
0.0489955
0.0487213
0.0483942
0.047965
0.042133
0.042133
0.042133
0.042133
0.042133
0.042133
0.042133
0.042133
0.042133
0.042133
0.042133
0.042133
0.042133
0.042133
0.042133
0.042133
0.042133
0.042133
0.042133
0.042133
0.042133
0.042133
0.042133
0.042133
0.042133
0.042133
0.042133
0.042133
0.0421331
0.0421371
0.0422403
0.0428813
0.0439486
0.0445491
0.0447089
0.0447167
0.0446799
0.0446418
0.0446206
0.0446016
0.0445831
0.0445655
0.0445483
0.0445321
0.0445193
0.0445128
0.044514
0.044522
0.0445364
0.0445558
0.0445793
0.0446061
0.0446358
0.044668
0.0447026
0.04474
0.0447809
0.0448263
0.0448768
0.0449328
0.0449943
0.0450601
0.045129
0.0452016
0.0452803
0.0453656
0.0454553
0.0455467
0.0456392
0.0457345
0.0458342
0.0459385
0.0460463
0.046156
0.0462668
0.0463784
0.0464915
0.0466066
0.0467243
0.0468449
0.0469687
0.0470955
0.047225
0.0473568
0.0474907
0.047626
0.0477626
0.0478999
0.0480378
0.0481759
0.0483143
0.0484526
0.0485907
0.0487285