/*--------------------------------*- C++ -*----------------------------------*\
| =========                 |                                                 |
| \\      /  F ield         | OpenFOAM: The Open Source CFD Toolbox           |
|  \\    /   O peration     | Version:  2412                                  |
|   \\  /    A nd           | Website:  www.openfoam.com                      |
|    \\/     M anipulation  |                                                 |
\*---------------------------------------------------------------------------*/
FoamFile
{
    version     2.0;
    format      ascii;
    arch        "LSB;label=32;scalar=64";
    class       volVectorField;
    location    "0.007";
    object      U;
}
// * * * * * * * * * * * * * * * * * * * * * * * * * * * * * * * * * * * * * //

dimensions      [0 1 -1 0 0 0 0];

internalField   nonuniform List<vector> 
78650
(
(210 4.56336e-12 0)
(210 3.62673e-12 0)
(210 -3.02642e-12 0)
(210 2.4002e-12 0)
(210 3.22366e-12 0)
(210 -1.58706e-12 0)
(210 -9.72899e-13 0)
(210 2.00572e-12 0)
(210 2.08898e-12 0)
(210 4.56487e-12 0)
(210 1.84656e-12 0)
(210 4.89361e-12 0)
(210 2.0754e-12 0)
(210 1.94805e-12 0)
(210 9.18058e-13 0)
(210 -3.6866e-12 0)
(210 -4.61815e-12 0)
(210 -3.50432e-12 0)
(210 -3.32852e-12 0)
(210 -3.70283e-12 0)
(210 -7.36297e-13 0)
(210 3.64679e-12 0)
(210 -9.66696e-13 0)
(210 -7.33802e-12 0)
(210 -3.73481e-12 0)
(210 2.44218e-12 0)
(210 1.23031e-12 0)
(210 2.8791e-12 0)
(210 2.0513e-12 0)
(210 1.25592e-12 0)
(210 4.76404e-12 0)
(210 2.30751e-12 0)
(210 -2.54197e-12 0)
(210 4.64462e-13 0)
(210 2.44125e-12 0)
(210 3.15531e-11 0)
(210 5.31505e-09 0)
(210 6.11581e-07 0)
(210 5.44093e-05 0)
(209.99 0.00337118 0)
(209.76 0.0895316 0)
(208.112 0.825542 0)
(204.115 2.86542 0)
(200.257 4.99477 0)
(198.292 6.05989 0)
(198.162 6.39997 0)
(198.136 6.49487 0)
(198.532 6.55715 0)
(199.118 6.52034 0)
(199.64 6.60093 0)
(200.034 6.75515 0)
(200.421 6.94541 0)
(200.816 7.15351 0)
(201.162 7.40268 0)
(201.505 7.69142 0)
(201.848 8.01798 0)
(202.158 8.38222 0)
(202.448 8.79198 0)
(202.736 9.25768 0)
(203.027 9.77421 0)
(203.304 10.3283 0)
(203.549 10.9175 0)
(203.783 11.5504 0)
(204.017 12.237 0)
(204.252 12.9794 0)
(204.488 13.7731 0)
(204.723 14.6104 0)
(204.941 15.4883 0)
(205.14 16.4099 0)
(205.339 17.3807 0)
(205.558 18.4064 0)
(205.808 19.4914 0)
(206.092 20.6393 0)
(206.407 21.855 0)
(206.748 23.1442 0)
(207.112 24.5054 0)
(207.513 25.9277 0)
(207.967 27.3993 0)
(208.481 28.9187 0)
(209.057 30.4965 0)
(209.709 32.1413 0)
(210.434 33.859 0)
(211.268 35.642 0)
(212.224 37.4838 0)
(213.31 39.3805 0)
(214.548 41.3295 0)
(215.962 43.3233 0)
(217.529 45.365 0)
(219.314 47.4386 0)
(221.299 49.5365 0)
(223.484 51.6581 0)
(225.97 53.7434 0)
(228.615 55.8507 0)
(231.657 57.8262 0)
(234.812 59.8339 0)
(238.435 61.6048 0)
(242.155 63.4245 0)
(246.334 64.9173 0)
(250.654 66.4122 0)
(255.347 67.5739 0)
(260.24 68.624 0)
(265.373 69.3496 0)
(270.755 69.928 0)
(276.105 70.0698 0)
(281.757 70.0992 0)
(286.998 69.7388 0)
(292.524 69.3119 0)
(297.523 68.661 0)
(302.565 67.9533 0)
(307.222 67.1715 0)
(311.617 66.2695 0)
(316.076 65.1218 0)
(319.739 64.1333 0)
(323.679 63.0096 0)
(326.687 62.1967 0)
(329.234 61.2775 0)
(331.058 60.2515 0)
(332.698 59.4964 0)
(335.28 58.7718 0)
(339.109 57.9647 0)
(340.509 60.2083 0)
(210 5.09416e-12 0)
(210 1.313e-12 0)
(210 -3.93473e-12 0)
(210 3.20045e-12 0)
(210 1.52744e-12 0)
(210 1.47356e-12 0)
(210 3.3406e-12 0)
(210 2.28131e-12 0)
(210 2.06569e-12 0)
(210 1.14234e-12 0)
(210 1.52631e-12 0)
(210 4.55114e-12 0)
(210 1.94886e-12 0)
(210 -6.26018e-13 0)
(210 -1.78836e-12 0)
(210 -4.86671e-12 0)
(210 -4.61488e-12 0)
(210 -2.75631e-12 0)
(210 -3.18068e-12 0)
(210 -3.86772e-12 0)
(210 1.56927e-12 0)
(210 1.71062e-12 0)
(210 -5.37934e-12 0)
(210 -9.29626e-12 0)
(210 -2.384e-12 0)
(210 1.2449e-12 0)
(210 2.96785e-12 0)
(210 5.42553e-12 0)
(210 -6.55087e-14 0)
(210 -6.95654e-13 0)
(210 5.19214e-12 0)
(210 2.67238e-12 0)
(210 -1.62823e-12 0)
(210 -5.68337e-13 0)
(210 -1.99806e-12 0)
(210 -2.51515e-12 0)
(210 7.89996e-10 0)
(210 9.12808e-08 0)
(210 9.57943e-06 0)
(209.995 0.00105129 0)
(209.861 0.0423727 0)
(208.641 0.525833 0)
(204.96 2.26796 0)
(200.699 4.53448 0)
(198.298 5.81995 0)
(197.991 6.24397 0)
(197.83 6.43205 0)
(198.176 6.54966 0)
(198.741 6.51317 0)
(199.26 6.57043 0)
(199.639 6.7099 0)
(200.01 6.89494 0)
(200.388 7.09747 0)
(200.716 7.33875 0)
(201.043 7.6219 0)
(201.37 7.94486 0)
(201.664 8.30469 0)
(201.934 8.70851 0)
(202.202 9.16762 0)
(202.473 9.67684 0)
(202.726 10.2218 0)
(202.946 10.7983 0)
(203.149 11.4156 0)
(203.347 12.0857 0)
(203.543 12.8124 0)
(203.739 13.5914 0)
(203.935 14.4141 0)
(204.109 15.2761 0)
(204.26 16.1797 0)
(204.407 17.1307 0)
(204.568 18.136 0)
(204.751 19.2013 0)
(204.963 20.3304 0)
(205.201 21.5276 0)
(205.46 22.7986 0)
(205.736 24.1442 0)
(206.04 25.556 0)
(206.384 27.0218 0)
(206.78 28.5366 0)
(207.231 30.1083 0)
(207.745 31.7479 0)
(208.318 33.4647 0)
(208.985 35.2541 0)
(209.756 37.1116 0)
(210.646 39.0326 0)
(211.673 41.0163 0)
(212.862 43.0573 0)
(214.19 45.1593 0)
(215.727 47.3094 0)
(217.444 49.5045 0)
(219.363 51.7394 0)
(221.562 53.9716 0)
(223.931 56.2348 0)
(226.682 58.4166 0)
(229.566 60.6343 0)
(232.912 62.6766 0)
(236.358 64.76 0)
(240.282 66.5608 0)
(244.308 68.379 0)
(248.739 69.8487 0)
(253.312 71.2618 0)
(258.154 72.329 0)
(263.162 73.2183 0)
(268.377 73.8006 0)
(273.658 74.1194 0)
(279.117 74.2206 0)
(284.312 74.0969 0)
(289.883 73.8426 0)
(294.682 73.2996 0)
(300.296 72.6111 0)
(304.879 71.8119 0)
(310.041 70.9472 0)
(314.298 69.9681 0)
(319.07 68.806 0)
(322.995 67.6581 0)
(326.689 66.3964 0)
(329.023 65.3091 0)
(330.417 64.4274 0)
(332.417 63.8602 0)
(336.728 62.8941 0)
(338.23 65.7853 0)
(210 5.30743e-13 0)
(210 -8.53958e-13 0)
(210 1.44364e-12 0)
(210 4.46333e-12 0)
(210 4.26273e-12 0)
(210 4.32434e-12 0)
(210 3.27279e-12 0)
(210 -1.65706e-12 0)
(210 2.0645e-12 0)
(210 9.47169e-13 0)
(210 6.21231e-12 0)
(210 3.90005e-12 0)
(210 -1.23621e-12 0)
(210 -3.95851e-13 0)
(210 -4.90284e-12 0)
(210 -3.32554e-12 0)
(210 -2.39536e-12 0)
(210 -2.00499e-12 0)
(210 -4.41724e-12 0)
(210 -1.62426e-12 0)
(210 1.92938e-12 0)
(210 -2.03781e-12 0)
(210 -6.40385e-12 0)
(210 -5.3946e-12 0)
(210 -2.9045e-13 0)
(210 4.0919e-12 0)
(210 1.92285e-12 0)
(210 1.20909e-12 0)
(210 -1.56781e-12 0)
(210 1.57387e-12 0)
(210 5.71193e-12 0)
(210 2.64091e-12 0)
(210 -2.25911e-12 0)
(210 -4.91738e-13 0)
(210 -2.60423e-12 0)
(210 -4.758e-12 0)
(210 2.40068e-10 0)
(210 3.10651e-08 0)
(210 3.59948e-06 0)
(209.998 0.000405673 0)
(209.928 0.0202714 0)
(209.102 0.32464 0)
(205.946 1.74757 0)
(201.475 4.048 0)
(198.465 5.5413 0)
(197.818 6.10326 0)
(197.53 6.38305 0)
(197.825 6.5149 0)
(198.365 6.46653 0)
(198.876 6.5007 0)
(199.249 6.6247 0)
(199.608 6.80175 0)
(199.971 6.99513 0)
(200.282 7.22624 0)
(200.595 7.50268 0)
(200.909 7.82176 0)
(201.186 8.17814 0)
(201.437 8.57817 0)
(201.684 9.03319 0)
(201.933 9.53738 0)
(202.162 10.0755 0)
(202.354 10.6421 0)
(202.527 11.2465 0)
(202.689 11.9019 0)
(202.846 12.614 0)
(203.004 13.3791 0)
(203.161 14.1885 0)
(203.292 15.0368 0)
(203.396 15.9252 0)
(203.493 16.8591 0)
(203.597 17.8453 0)
(203.718 18.8901 0)
(203.861 19.9981 0)
(204.026 21.1744 0)
(204.206 22.4249 0)
(204.398 23.7515 0)
(204.607 25.1472 0)
(204.849 26.5996 0)
(205.133 28.1012 0)
(205.468 29.6566 0)
(205.851 31.2783 0)
(206.282 32.9772 0)
(206.793 34.7504 0)
(207.39 36.5947 0)
(208.091 38.5054 0)
(208.915 40.4828 0)
(209.883 42.5237 0)
(210.97 44.6327 0)
(212.251 46.8006 0)
(213.683 49.0283 0)
(215.307 51.3081 0)
(217.175 53.6142 0)
(219.21 55.9645 0)
(221.591 58.2844 0)
(224.109 60.6473 0)
(227.064 62.9003 0)
(230.133 65.1915 0)
(233.692 67.278 0)
(237.373 69.3975 0)
(241.549 71.2197 0)
(245.893 73.0311 0)
(250.65 74.5091 0)
(255.634 75.8875 0)
(260.877 76.8993 0)
(266.352 77.6808 0)
(271.971 78.1858 0)
(277.398 78.4029 0)
(283.188 78.4784 0)
(288.509 78.2132 0)
(293.951 77.7287 0)
(299.172 77.0929 0)
(303.632 76.4567 0)
(308.766 75.6582 0)
(313.031 74.8579 0)
(317.766 73.9064 0)
(321.871 72.7706 0)
(324.961 71.4898 0)
(327.337 70.3052 0)
(330.162 69.2715 0)
(335.099 68.2327 0)
(336.841 71.5041 0)
(210 -5.1948e-13 0)
(210 1.35117e-12 0)
(210 3.82749e-12 0)
(210 1.0708e-12 0)
(210 1.66022e-12 0)
(210 9.23812e-13 0)
(210 -1.40717e-12 0)
(210 -3.61621e-12 0)
(210 2.35651e-12 0)
(210 3.91289e-12 0)
(210 2.22622e-12 0)
(210 -1.52091e-12 0)
(210 -4.45569e-12 0)
(210 -5.89493e-12 0)
(210 -2.79896e-12 0)
(210 -1.25383e-12 0)
(210 -2.86395e-12 0)
(210 -5.55509e-12 0)
(210 -5.12217e-12 0)
(210 1.24968e-12 0)
(210 1.90775e-12 0)
(210 -3.23044e-12 0)
(210 -3.83563e-12 0)
(210 -3.50705e-12 0)
(210 7.01873e-13 0)
(210 6.84686e-12 0)
(210 1.07265e-12 0)
(210 2.44619e-12 0)
(210 -4.04804e-13 0)
(210 -3.38753e-13 0)
(210 1.28768e-12 0)
(210 -5.05368e-13 0)
(210 -5.74465e-12 0)
(210 4.40124e-13 0)
(210 -3.94545e-12 0)
(210 -5.83243e-12 0)
(210 1.97059e-11 0)
(210 3.52372e-09 0)
(210 5.61317e-07 0)
(209.999 0.000105384 0)
(209.965 0.0080926 0)
(209.44 0.178875 0)
(206.846 1.24898 0)
(202.244 3.45641 0)
(198.648 5.21376 0)
(197.678 5.96746 0)
(197.262 6.24636 0)
(197.488 6.43045 0)
(197.984 6.40726 0)
(198.473 6.43827 0)
(198.84 6.55035 0)
(199.187 6.71987 0)
(199.531 6.90855 0)
(199.825 7.13483 0)
(200.124 7.4108 0)
(200.424 7.73103 0)
(200.685 8.0856 0)
(200.919 8.47996 0)
(201.145 8.92642 0)
(201.374 9.41999 0)
(201.579 9.94555 0)
(201.745 10.4966 0)
(201.889 11.0831 0)
(202.017 11.7198 0)
(202.137 12.4137 0)
(202.259 13.1622 0)
(202.379 13.9556 0)
(202.47 14.7873 0)
(202.532 15.6571 0)
(202.582 16.5702 0)
(202.634 17.5343 0)
(202.695 18.5559 0)
(202.771 19.6408 0)
(202.864 20.7943 0)
(202.967 22.0221 0)
(203.078 23.3263 0)
(203.198 24.7024 0)
(203.34 26.1388 0)
(203.516 27.6261 0)
(203.736 29.1659 0)
(203.992 30.7713 0)
(204.286 32.4548 0)
(204.645 34.2164 0)
(205.071 36.0552 0)
(205.588 37.9666 0)
(206.213 39.9522 0)
(206.966 42.0099 0)
(207.823 44.1449 0)
(208.86 46.3519 0)
(210.027 48.633 0)
(211.382 50.9811 0)
(212.954 53.3804 0)
(214.695 55.8381 0)
(216.755 58.2993 0)
(218.963 60.8072 0)
(221.586 63.2459 0)
(224.338 65.7206 0)
(227.567 68.0464 0)
(230.922 70.3978 0)
(234.773 72.5 0)
(238.752 74.6079 0)
(243.182 76.4004 0)
(247.778 78.141 0)
(252.739 79.5524 0)
(257.95 80.8092 0)
(263.325 81.6539 0)
(269.132 82.419 0)
(274.515 82.6543 0)
(280.671 82.9108 0)
(285.68 82.6837 0)
(291.994 82.4799 0)
(296.897 81.9351 0)
(302.612 81.1769 0)
(307.159 80.53 0)
(312.205 79.6535 0)
(316.62 78.6385 0)
(319.854 77.3953 0)
(322.336 76.3091 0)
(325.255 75.4357 0)
(330.565 74.2996 0)
(332.312 77.8318 0)
(210 4.59643e-12 0)
(210 5.72087e-12 0)
(210 4.52875e-12 0)
(210 2.60466e-12 0)
(210 4.35377e-12 0)
(210 3.54456e-13 0)
(210 -2.00532e-12 0)
(210 2.20397e-12 0)
(210 7.39187e-12 0)
(210 -9.9854e-13 0)
(210 -1.43132e-12 0)
(210 -2.77758e-12 0)
(210 -5.90372e-12 0)
(210 -8.0833e-12 0)
(210 -6.13696e-13 0)
(210 -2.20408e-12 0)
(210 -5.12287e-12 0)
(210 -3.126e-12 0)
(210 1.54058e-12 0)
(210 3.49798e-12 0)
(210 -1.03706e-12 0)
(210 -9.32043e-13 0)
(210 -9.01871e-13 0)
(210 8.68976e-13 0)
(210 4.54175e-12 0)
(210 1.80607e-12 0)
(210 -6.34498e-13 0)
(210 1.32101e-12 0)
(210 -3.3805e-12 0)
(210 -2.60702e-12 0)
(210 -6.39492e-13 0)
(210 -3.42099e-12 0)
(210 -2.4303e-12 0)
(210 2.20418e-12 0)
(210 -3.72237e-12 0)
(210 -4.73635e-12 0)
(210 7.46797e-12 0)
(210 1.26913e-09 0)
(210 1.57854e-07 0)
(210 2.77057e-05 0)
(209.985 0.00298689 0)
(209.684 0.0908058 0)
(207.717 0.83991 0)
(203.3 2.85274 0)
(199.199 4.83876 0)
(197.638 5.79688 0)
(196.982 6.0821 0)
(197.154 6.36431 0)
(197.592 6.36152 0)
(198.053 6.35612 0)
(198.425 6.44226 0)
(198.766 6.60078 0)
(199.093 6.78402 0)
(199.373 7.00431 0)
(199.662 7.27814 0)
(199.95 7.59807 0)
(200.194 7.9502 0)
(200.407 8.33921 0)
(200.612 8.77798 0)
(200.818 9.26182 0)
(200.998 9.7756 0)
(201.138 10.3121 0)
(201.254 10.8814 0)
(201.348 11.4994 0)
(201.433 12.1752 0)
(201.521 12.9068 0)
(201.605 13.6846 0)
(201.655 14.5008 0)
(201.676 15.3536 0)
(201.68 16.248 0)
(201.68 17.1913 0)
(201.683 18.1898 0)
(201.694 19.2506 0)
(201.716 20.3797 0)
(201.746 21.5824 0)
(201.778 22.8616 0)
(201.814 24.2142 0)
(201.861 25.6294 0)
(201.935 27.0969 0)
(202.046 28.6147 0)
(202.182 30.1947 0)
(202.35 31.8503 0)
(202.568 33.5841 0)
(202.836 35.3962 0)
(203.18 37.283 0)
(203.621 39.2458 0)
(204.17 41.2833 0)
(204.807 43.4017 0)
(205.607 45.5996 0)
(206.51 47.8798 0)
(207.59 50.238 0)
(208.851 52.6662 0)
(210.269 55.1658 0)
(211.969 57.701 0)
(213.813 60.2954 0)
(216.04 62.8735 0)
(218.402 65.5045 0)
(221.223 68.0587 0)
(224.19 70.6527 0)
(227.664 73.0853 0)
(231.303 75.5446 0)
(235.469 77.7474 0)
(239.818 79.9346 0)
(244.617 81.7767 0)
(249.643 83.4992 0)
(255.038 84.8791 0)
(260.615 86.0371 0)
(266.36 86.8527 0)
(272.314 87.4971 0)
(278.135 87.6915 0)
(283.927 87.7302 0)
(290.031 87.5096 0)
(295.36 87.0412 0)
(301.448 86.4182 0)
(306.392 85.7249 0)
(312.155 84.6512 0)
(316.052 83.4197 0)
(319.115 82.1326 0)
(322.214 81.3866 0)
(327.946 80.3342 0)
(329.692 84.4119 0)
(210 3.73844e-12 0)
(210 1.97206e-13 0)
(210 1.94219e-12 0)
(210 2.51475e-12 0)
(210 5.61096e-12 0)
(210 1.29985e-12 0)
(210 1.12015e-12 0)
(210 2.30384e-12 0)
(210 -2.93492e-13 0)
(210 -6.6887e-12 0)
(210 -2.13821e-12 0)
(210 -5.56254e-12 0)
(210 -4.27377e-12 0)
(210 -2.33642e-12 0)
(210 -1.6261e-12 0)
(210 -2.49761e-12 0)
(210 -1.71566e-12 0)
(210 -1.54889e-12 0)
(210 3.59795e-12 0)
(210 2.7725e-12 0)
(210 1.89889e-12 0)
(210 2.1984e-12 0)
(210 2.21171e-12 0)
(210 4.87023e-12 0)
(210 8.85529e-12 0)
(210 4.98313e-12 0)
(210 4.37696e-12 0)
(210 4.01901e-13 0)
(210 -4.40726e-12 0)
(210 -8.07633e-13 0)
(210 3.29995e-12 0)
(210 3.56541e-13 0)
(210 2.88752e-12 0)
(210 -4.49521e-13 0)
(210 -6.39615e-12 0)
(210 -5.74499e-12 0)
(210 -7.17456e-12 0)
(210 -1.7501e-10 0)
(210 -5.8601e-09 0)
(210 3.25534e-06 0)
(209.994 0.000877048 0)
(209.838 0.0398477 0)
(208.46 0.50898 0)
(204.423 2.20722 0)
(199.732 4.32413 0)
(197.569 5.55755 0)
(196.713 5.91786 0)
(196.85 6.27591 0)
(197.193 6.26928 0)
(197.609 6.25529 0)
(197.985 6.32962 0)
(198.322 6.48459 0)
(198.63 6.67265 0)
(198.896 6.89744 0)
(199.176 7.17492 0)
(199.452 7.49257 0)
(199.679 7.83528 0)
(199.873 8.21134 0)
(200.055 8.63676 0)
(200.24 9.10789 0)
(200.395 9.60847 0)
(200.51 10.1294 0)
(200.598 10.6804 0)
(200.661 11.2781 0)
(200.713 11.9338 0)
(200.769 12.6466 0)
(200.816 13.4072 0)
(200.828 14.2062 0)
(200.811 15.04 0)
(200.773 15.9135 0)
(200.724 16.8333 0)
(200.672 17.8058 0)
(200.621 18.8397 0)
(200.575 19.9414 0)
(200.534 21.1159 0)
(200.492 22.3667 0)
(200.447 23.6915 0)
(200.404 25.0812 0)
(200.38 26.5257 0)
(200.384 28.0206 0)
(200.404 29.5749 0)
(200.452 31.2032 0)
(200.532 32.9108 0)
(200.646 34.6996 0)
(200.821 36.5676 0)
(201.079 38.5164 0)
(201.427 40.5447 0)
(201.851 42.6595 0)
(202.418 44.8635 0)
(203.069 47.1585 0)
(203.886 49.544 0)
(204.855 52.0152 0)
(205.975 54.5708 0)
(207.348 57.1871 0)
(208.862 59.8764 0)
(210.733 62.5877 0)
(212.742 65.3627 0)
(215.186 68.1038 0)
(217.781 70.8875 0)
(220.859 73.562 0)
(224.1 76.2572 0)
(227.856 78.7527 0)
(231.776 81.2464 0)
(236.214 83.441 0)
(240.85 85.5772 0)
(245.901 87.3694 0)
(251.237 89.043 0)
(256.891 90.3681 0)
(262.589 91.3115 0)
(268.75 92.1706 0)
(274.308 92.4784 0)
(280.779 92.7299 0)
(286.26 92.6056 0)
(292.585 92.3185 0)
(297.861 91.9288 0)
(304.192 91.3311 0)
(308.714 90.5908 0)
(312.129 89.3199 0)
(315.35 88.3249 0)
(321.689 86.9684 0)
(323.451 91.4536 0)
(210 2.28926e-12 0)
(210 2.87488e-12 0)
(210 4.79019e-12 0)
(210 2.93298e-12 0)
(210 2.62075e-12 0)
(210 -4.07005e-12 0)
(210 -5.78587e-12 0)
(210 -3.23059e-12 0)
(210 -4.98338e-12 0)
(210 -5.55398e-13 0)
(210 -2.24215e-12 0)
(210 -8.02328e-14 0)
(210 -1.96729e-12 0)
(210 -5.48363e-13 0)
(210 -2.622e-12 0)
(210 -2.08746e-12 0)
(210 6.7266e-13 0)
(210 -3.29474e-12 0)
(210 -1.1563e-12 0)
(210 -7.72892e-13 0)
(210 2.96312e-12 0)
(210 -1.44585e-12 0)
(210 1.11361e-12 0)
(210 6.17572e-12 0)
(210 1.03548e-11 0)
(210 7.1238e-12 0)
(210 3.33348e-12 0)
(210 -1.61499e-12 0)
(210 -2.96774e-12 0)
(210 -2.03729e-13 0)
(210 3.90317e-12 0)
(210 3.24336e-12 0)
(210 -6.83174e-14 0)
(210 -5.6479e-12 0)
(210 -8.29623e-12 0)
(210 -5.12303e-12 0)
(210 -5.4053e-12 0)
(210 -5.78676e-11 0)
(210 -5.66673e-09 0)
(210 1.68016e-07 0)
(209.998 0.00020905 0)
(209.926 0.015219 0)
(209.055 0.278523 0)
(205.636 1.59747 0)
(200.696 3.76817 0)
(197.772 5.23193 0)
(196.524 5.74558 0)
(196.599 6.10001 0)
(196.786 6.14421 0)
(197.15 6.13412 0)
(197.539 6.19349 0)
(197.881 6.3477 0)
(198.171 6.54033 0)
(198.425 6.76675 0)
(198.696 7.0435 0)
(198.957 7.35501 0)
(199.166 7.68479 0)
(199.338 8.04435 0)
(199.501 8.45308 0)
(199.664 8.90894 0)
(199.796 9.3952 0)
(199.889 9.90095 0)
(199.95 10.4348 0)
(199.981 11.0138 0)
(200.002 11.6506 0)
(200.026 12.3453 0)
(200.034 13.0895 0)
(200.009 13.872 0)
(199.956 14.6876 0)
(199.876 15.5407 0)
(199.779 16.4374 0)
(199.672 17.3845 0)
(199.56 18.3912 0)
(199.449 19.4645 0)
(199.339 20.6093 0)
(199.225 21.8295 0)
(199.104 23.1235 0)
(198.976 24.4839 0)
(198.86 25.8997 0)
(198.759 27.367 0)
(198.672 28.8886 0)
(198.609 30.4809 0)
(198.562 32.1513 0)
(198.537 33.9014 0)
(198.555 35.7317 0)
(198.646 37.6437 0)
(198.808 39.635 0)
(199.034 41.7134 0)
(199.385 43.8847 0)
(199.797 46.1501 0)
(200.362 48.514 0)
(201.044 50.9738 0)
(201.866 53.5293 0)
(202.902 56.1682 0)
(204.065 58.8955 0)
(205.544 61.6816 0)
(207.153 64.5463 0)
(209.162 67.4267 0)
(211.322 70.3696 0)
(213.948 73.2737 0)
(216.758 76.2216 0)
(220.093 79.0513 0)
(223.635 81.8978 0)
(227.739 84.5263 0)
(232.06 87.158 0)
(236.932 89.468 0)
(242.036 91.6632 0)
(247.542 93.4832 0)
(253.395 95.1539 0)
(259.386 96.3815 0)
(265.766 97.3856 0)
(271.799 97.8906 0)
(278.553 98.3755 0)
(284.401 98.2861 0)
(291.312 98.1144 0)
(296.743 97.6757 0)
(302.624 96.9491 0)
(306.999 95.8356 0)
(310.924 94.9605 0)
(317.913 93.8689 0)
(319.821 99.1705 0)
(210 1.62709e-12 0)
(210 1.53505e-12 0)
(210 5.75751e-12 0)
(210 5.26468e-12 0)
(210 -2.4067e-12 0)
(210 -1.2296e-11 0)
(210 -7.0281e-12 0)
(210 -2.45865e-12 0)
(210 -1.80846e-12 0)
(210 5.58411e-12 0)
(210 1.02203e-12 0)
(210 1.09645e-12 0)
(210 -3.92978e-12 0)
(210 -4.03476e-12 0)
(210 -3.82451e-12 0)
(210 -1.3302e-12 0)
(210 -3.06202e-12 0)
(210 -4.41793e-12 0)
(210 2.35451e-13 0)
(210 2.0514e-12 0)
(210 -2.53604e-12 0)
(210 -9.53531e-13 0)
(210 2.56813e-12 0)
(210 4.76846e-12 0)
(210 4.66699e-12 0)
(210 1.04227e-12 0)
(210 -2.66045e-12 0)
(210 -5.23761e-12 0)
(210 -5.32316e-12 0)
(210 -1.9899e-12 0)
(210 1.68941e-12 0)
(210 -2.32241e-12 0)
(210 -6.90719e-12 0)
(210 -7.20575e-12 0)
(210 -9.09299e-12 0)
(210 -5.86959e-12 0)
(210 -3.17948e-12 0)
(210 -3.74664e-11 0)
(210 -4.05075e-09 0)
(210 -2.53349e-07 0)
(209.999 2.80218e-05 0)
(209.97 0.00475198 0)
(209.478 0.132364 0)
(206.822 1.0531 0)
(201.794 3.08956 0)
(198.009 4.84159 0)
(196.313 5.56607 0)
(196.304 5.92169 0)
(196.371 5.99978 0)
(196.688 6.00307 0)
(197.088 6.06323 0)
(197.438 6.21855 0)
(197.707 6.40807 0)
(197.947 6.62848 0)
(198.207 6.89922 0)
(198.45 7.20298 0)
(198.637 7.52077 0)
(198.787 7.86609 0)
(198.928 8.26035 0)
(199.07 8.70244 0)
(199.179 9.17495 0)
(199.25 9.66572 0)
(199.284 10.1826 0)
(199.284 10.7429 0)
(199.276 11.3611 0)
(199.265 12.0384 0)
(199.233 12.7671 0)
(199.174 13.5333 0)
(199.086 14.331 0)
(198.968 15.1614 0)
(198.826 16.0323 0)
(198.667 16.9509 0)
(198.499 17.9266 0)
(198.327 18.9675 0)
(198.154 20.077 0)
(197.973 21.2616 0)
(197.778 22.5213 0)
(197.572 23.8479 0)
(197.371 25.2297 0)
(197.166 26.6704 0)
(196.979 28.1561 0)
(196.806 29.71 0)
(196.634 31.3426 0)
(196.476 33.0545 0)
(196.344 34.8491 0)
(196.269 36.7285 0)
(196.246 38.6895 0)
(196.281 40.7395 0)
(196.417 42.8874 0)
(196.598 45.1334 0)
(196.918 47.4873 0)
(197.324 49.9456 0)
(197.861 52.5109 0)
(198.579 55.1766 0)
(199.413 57.9413 0)
(200.531 60.7886 0)
(201.77 63.7229 0)
(203.379 66.7062 0)
(205.136 69.7641 0)
(207.329 72.8262 0)
(209.701 75.9416 0)
(212.567 78.9989 0)
(215.636 82.0933 0)
(219.25 85.0552 0)
(223.078 88.022 0)
(227.481 90.7159 0)
(232.107 93.3733 0)
(237.267 95.687 0)
(242.691 97.8437 0)
(248.53 99.6256 0)
(254.668 101.22 0)
(260.713 102.278 0)
(267.488 103.449 0)
(273.571 103.837 0)
(280.917 104.284 0)
(286.859 104.224 0)
(293.715 103.96 0)
(298.765 103.081 0)
(302.677 102.315 0)
(309.764 101.161 0)
(311.414 106.552 0)
(210 -2.59244e-13 0)
(210 4.92524e-12 0)
(210 5.62777e-12 0)
(210 -1.38518e-12 0)
(210 -9.77168e-12 0)
(210 -5.07981e-12 0)
(210 3.29075e-13 0)
(210 3.37111e-12 0)
(210 6.97992e-12 0)
(210 4.65423e-12 0)
(210 1.68187e-12 0)
(210 -1.16869e-12 0)
(210 -5.74701e-12 0)
(210 -6.68078e-12 0)
(210 -2.15555e-12 0)
(210 -2.84712e-12 0)
(210 -5.63151e-12 0)
(210 8.35846e-13 0)
(210 2.89215e-12 0)
(210 1.57255e-12 0)
(210 -3.01021e-12 0)
(210 -2.84042e-12 0)
(210 -9.85706e-13 0)
(210 3.69435e-13 0)
(210 -8.98361e-13 0)
(210 -1.92357e-12 0)
(210 -3.25944e-12 0)
(210 -6.98716e-12 0)
(210 -6.37716e-12 0)
(210 -1.23417e-12 0)
(210 2.96314e-13 0)
(210 -5.63977e-12 0)
(210 -6.10901e-12 0)
(210 -5.29326e-12 0)
(210 -4.51378e-12 0)
(210 -4.67465e-12 0)
(210 -4.59669e-12 0)
(210 -1.37902e-11 0)
(210 -1.24957e-09 0)
(210 -1.20497e-07 0)
(210 -2.70691e-06 0)
(209.99 0.00114758 0)
(209.745 0.0538553 0)
(207.881 0.623771 0)
(203.157 2.39664 0)
(198.635 4.36915 0)
(196.318 5.2792 0)
(196.109 5.70485 0)
(195.986 5.80805 0)
(196.228 5.85948 0)
(196.637 5.923 0)
(196.989 6.07759 0)
(197.232 6.26241 0)
(197.458 6.47622 0)
(197.708 6.73568 0)
(197.937 7.02401 0)
(198.105 7.32347 0)
(198.235 7.65104 0)
(198.357 8.02954 0)
(198.48 8.45727 0)
(198.569 8.91531 0)
(198.62 9.39018 0)
(198.627 9.88869 0)
(198.6 10.4293 0)
(198.566 11.0273 0)
(198.518 11.6857 0)
(198.448 12.3973 0)
(198.357 13.1474 0)
(198.235 13.9269 0)
(198.083 14.7322 0)
(197.894 15.5798 0)
(197.684 16.4711 0)
(197.463 17.4159 0)
(197.233 18.4235 0)
(196.996 19.5002 0)
(196.748 20.6488 0)
(196.483 21.8704 0)
(196.201 23.1607 0)
(195.911 24.5103 0)
(195.623 25.9082 0)
(195.34 27.3586 0)
(195.059 28.8719 0)
(194.771 30.4603 0)
(194.492 32.1247 0)
(194.226 33.8685 0)
(194.002 35.6956 0)
(193.806 37.607 0)
(193.671 39.6044 0)
(193.609 41.7011 0)
(193.582 43.8948 0)
(193.674 46.2012 0)
(193.822 48.6149 0)
(194.089 51.1435 0)
(194.498 53.7847 0)
(195.008 56.5352 0)
(195.761 59.3926 0)
(196.617 62.3531 0)
(197.803 65.404 0)
(199.123 68.5547 0)
(200.845 71.7653 0)
(202.741 75.0624 0)
(205.112 78.3741 0)
(207.703 81.7513 0)
(210.83 85.0669 0)
(214.215 88.401 0)
(218.211 91.5515 0)
(222.457 94.7023 0)
(227.336 97.5471 0)
(232.494 100.315 0)
(238.158 102.688 0)
(244.106 104.921 0)
(250.456 106.829 0)
(256.928 108.315 0)
(263.747 109.38 0)
(270.527 110.054 0)
(277.742 110.568 0)
(284.207 110.519 0)
(289.834 110.087 0)
(294.119 109.717 0)
(301.904 108.792 0)
(303.415 115.079 0)
(210 2.10965e-12 0)
(210 9.54919e-12 0)
(210 1.93436e-12 0)
(210 -2.68224e-12 0)
(210 1.42392e-13 0)
(210 1.42679e-12 0)
(210 5.31938e-12 0)
(210 7.18675e-12 0)
(210 3.7775e-12 0)
(210 -4.34816e-13 0)
(210 1.93834e-12 0)
(210 -8.68291e-13 0)
(210 -2.0099e-12 0)
(210 -5.93071e-13 0)
(210 3.96344e-12 0)
(210 -9.8244e-13 0)
(210 4.34896e-12 0)
(210 7.94532e-12 0)
(210 4.41884e-12 0)
(210 -3.05939e-12 0)
(210 -1.94566e-12 0)
(210 1.60277e-12 0)
(210 1.07919e-12 0)
(210 -3.21868e-12 0)
(210 -3.1571e-12 0)
(210 -1.72866e-12 0)
(210 -4.4125e-12 0)
(210 -5.76149e-12 0)
(210 4.16894e-13 0)
(210 6.18094e-12 0)
(210 1.97006e-12 0)
(210 -3.66652e-12 0)
(210 -1.94666e-13 0)
(210 -6.47468e-13 0)
(210 -1.50582e-12 0)
(210 -5.51955e-12 0)
(210 -1.3868e-12 0)
(210 -2.90194e-13 0)
(210 -3.68088e-10 0)
(210 -4.21379e-08 0)
(210 -2.72844e-06 0)
(209.997 0.000162961 0)
(209.891 0.0179058 0)
(208.727 0.322431 0)
(204.641 1.70576 0)
(199.479 3.77135 0)
(196.333 4.91451 0)
(195.854 5.48021 0)
(195.567 5.62583 0)
(195.76 5.72121 0)
(196.18 5.78722 0)
(196.528 5.92843 0)
(196.746 6.09715 0)
(196.957 6.30112 0)
(197.197 6.55076 0)
(197.408 6.8268 0)
(197.556 7.11119 0)
(197.663 7.42446 0)
(197.766 7.79081 0)
(197.866 8.20791 0)
(197.935 8.65498 0)
(197.964 9.11684 0)
(197.944 9.59906 0)
(197.893 10.1211 0)
(197.832 10.6991 0)
(197.747 11.3381 0)
(197.643 12.031 0)
(197.523 12.7626 0)
(197.38 13.5149 0)
(197.186 14.3025 0)
(196.956 15.1206 0)
(196.703 15.9792 0)
(196.434 16.8885 0)
(196.151 17.8587 0)
(195.855 18.8967 0)
(195.544 20.0053 0)
(195.214 21.1854 0)
(194.859 22.4343 0)
(194.49 23.7433 0)
(194.115 25.1039 0)
(193.739 26.5151 0)
(193.356 27.9855 0)
(192.964 29.524 0)
(192.567 31.1394 0)
(192.175 32.8333 0)
(191.807 34.6088 0)
(191.438 36.4784 0)
(191.139 38.423 0)
(190.878 40.4722 0)
(190.65 42.6184 0)
(190.518 44.8832 0)
(190.418 47.2583 0)
(190.425 49.7552 0)
(190.54 52.3735 0)
(190.741 55.109 0)
(191.151 57.9683 0)
(191.649 60.9392 0)
(192.438 64.0246 0)
(193.348 67.218 0)
(194.619 70.5003 0)
(196.047 73.8809 0)
(197.914 77.3173 0)
(199.981 80.8309 0)
(202.55 84.3388 0)
(205.378 87.892 0)
(208.777 91.3711 0)
(212.448 94.8835 0)
(216.789 98.1758 0)
(221.382 101.462 0)
(226.633 104.439 0)
(232.186 107.334 0)
(238.204 109.787 0)
(244.653 112.016 0)
(251.561 113.83 0)
(258.669 115.229 0)
(266.681 116.729 0)
(273.457 117.171 0)
(280.96 117.099 0)
(286.207 116.534 0)
(294.478 115.845 0)
(296.083 122.5 0)
(210 5.80885e-12 0)
(210 2.14447e-12 0)
(210 -1.21903e-12 0)
(210 2.33687e-12 0)
(210 1.19937e-12 0)
(210 2.49063e-12 0)
(210 5.86717e-12 0)
(210 6.20631e-13 0)
(210 7.88781e-13 0)
(210 2.1254e-12 0)
(210 1.97241e-12 0)
(210 -2.37426e-12 0)
(210 -3.59782e-12 0)
(210 3.3242e-12 0)
(210 5.37777e-12 0)
(210 3.41469e-12 0)
(210 7.1981e-12 0)
(210 4.06249e-12 0)
(210 -8.91772e-13 0)
(210 -7.51066e-12 0)
(210 6.3196e-13 0)
(210 3.10143e-12 0)
(210 -3.18215e-12 0)
(210 -7.29811e-12 0)
(210 -3.84679e-12 0)
(210 1.98298e-13 0)
(210 -2.80267e-12 0)
(210 -1.56356e-12 0)
(210 6.41821e-12 0)
(210 9.95996e-12 0)
(210 5.7614e-12 0)
(210 3.31912e-12 0)
(210 4.42021e-12 0)
(210 1.82028e-12 0)
(210 -8.29178e-13 0)
(210 -1.94586e-12 0)
(210 -1.69111e-12 0)
(210 -2.80232e-12 0)
(210 -9.09393e-11 0)
(210 -1.1471e-08 0)
(210 -1.04684e-06 0)
(209.999 -1.49474e-05 0)
(209.96 0.00454497 0)
(209.321 0.142149 0)
(206.123 1.09953 0)
(200.679 3.08186 0)
(196.704 4.49381 0)
(195.718 5.248 0)
(195.248 5.3336 0)
(195.337 5.52997 0)
(195.741 5.61987 0)
(196.068 5.74441 0)
(196.259 5.88972 0)
(196.457 6.0787 0)
(196.687 6.32054 0)
(196.881 6.58897 0)
(197.01 6.86098 0)
(197.1 7.15911 0)
(197.187 7.50973 0)
(197.269 7.91223 0)
(197.322 8.34622 0)
(197.33 8.79476 0)
(197.285 9.26171 0)
(197.214 9.76686 0)
(197.125 10.3254 0)
(197.003 10.945 0)
(196.873 11.6161 0)
(196.731 12.3254 0)
(196.547 13.0631 0)
(196.32 13.823 0)
(196.054 14.6128 0)
(195.758 15.4401 0)
(195.44 16.3155 0)
(195.103 17.2495 0)
(194.749 18.2495 0)
(194.376 19.3178 0)
(193.981 20.4554 0)
(193.558 21.6607 0)
(193.112 22.9271 0)
(192.655 24.2453 0)
(192.192 25.6125 0)
(191.719 27.034 0)
(191.229 28.5207 0)
(190.722 30.0809 0)
(190.21 31.7193 0)
(189.702 33.4382 0)
(189.21 35.2328 0)
(188.758 37.1151 0)
(188.304 39.1079 0)
(187.901 41.1806 0)
(187.563 43.373 0)
(187.239 45.6781 0)
(187.012 48.1075 0)
(186.851 50.6637 0)
(186.764 53.3432 0)
(186.844 56.1604 0)
(186.991 59.0983 0)
(187.387 62.1749 0)
(187.878 65.3753 0)
(188.686 68.7025 0)
(189.632 72.1536 0)
(190.982 75.7103 0)
(192.518 79.3748 0)
(194.537 83.1068 0)
(196.817 86.9349 0)
(199.644 90.7743 0)
(202.783 94.6686 0)
(206.58 98.4519 0)
(210.669 102.271 0)
(215.503 105.805 0)
(220.59 109.283 0)
(226.317 112.366 0)
(232.354 115.302 0)
(238.91 117.762 0)
(246.093 120.234 0)
(253.37 122.006 0)
(260.919 123.398 0)
(267.983 123.63 0)
(273.25 123.993 0)
(281.637 123.667 0)
(282.563 130.933 0)
(210 1.5584e-12 0)
(210 -2.94888e-12 0)
(210 6.94986e-13 0)
(210 -2.12924e-12 0)
(210 -3.20363e-12 0)
(210 5.42297e-13 0)
(210 -2.99202e-12 0)
(210 -4.53402e-13 0)
(210 1.11426e-12 0)
(210 9.41763e-13 0)
(210 -1.00605e-12 0)
(210 -4.69233e-12 0)
(210 2.70723e-13 0)
(210 8.64282e-12 0)
(210 9.21416e-13 0)
(210 -1.27339e-13 0)
(210 1.56446e-12 0)
(210 -5.03614e-13 0)
(210 -1.68396e-12 0)
(210 1.02185e-12 0)
(210 7.29268e-12 0)
(210 1.08995e-13 0)
(210 1.82142e-13 0)
(210 1.22963e-12 0)
(210 5.35369e-12 0)
(210 3.08838e-12 0)
(210 2.26691e-12 0)
(210 2.44297e-12 0)
(210 7.40789e-12 0)
(210 6.7551e-12 0)
(210 -1.77645e-12 0)
(210 -3.09532e-13 0)
(210 3.81327e-12 0)
(210 1.67936e-12 0)
(210 4.33937e-13 0)
(210 -1.84258e-12 0)
(210 -2.91868e-12 0)
(210 1.04232e-13 0)
(210 -1.99962e-11 0)
(210 -2.78847e-09 0)
(210 -3.1048e-07 0)
(210 -1.8817e-05 0)
(209.987 0.00068392 0)
(209.683 0.0513721 0)
(207.443 0.622446 0)
(202.182 2.35592 0)
(197.274 3.99082 0)
(195.608 4.98202 0)
(194.875 5.06578 0)
(194.899 5.36721 0)
(195.284 5.45667 0)
(195.58 5.53948 0)
(195.752 5.65671 0)
(195.939 5.83958 0)
(196.163 6.08162 0)
(196.343 6.34274 0)
(196.454 6.601 0)
(196.527 6.88491 0)
(196.598 7.22299 0)
(196.661 7.61422 0)
(196.699 8.03689 0)
(196.687 8.4718 0)
(196.621 8.92296 0)
(196.533 9.41043 0)
(196.41 9.94901 0)
(196.257 10.5463 0)
(196.112 11.1935 0)
(195.93 11.8863 0)
(195.715 12.5994 0)
(195.458 13.3327 0)
(195.157 14.0919 0)
(194.821 14.886 0)
(194.457 15.7252 0)
(194.07 16.6202 0)
(193.661 17.579 0)
(193.231 18.604 0)
(192.777 19.6956 0)
(192.291 20.853 0)
(191.775 22.0722 0)
(191.24 23.3444 0)
(190.695 24.6648 0)
(190.136 26.0364 0)
(189.555 27.4686 0)
(188.948 28.9703 0)
(188.322 30.5479 0)
(187.689 32.2037 0)
(187.062 33.941 0)
(186.444 35.7648 0)
(185.843 37.6761 0)
(185.269 39.6872 0)
(184.725 41.8112 0)
(184.181 44.0551 0)
(183.727 46.4141 0)
(183.302 48.9052 0)
(182.943 51.5242 0)
(182.711 54.2905 0)
(182.529 57.1823 0)
(182.56 60.2255 0)
(182.663 63.3982 0)
(183.042 66.7187 0)
(183.535 70.1744 0)
(184.389 73.7687 0)
(185.397 77.4948 0)
(186.849 81.3445 0)
(188.526 85.3206 0)
(190.704 89.3722 0)
(193.196 93.5137 0)
(196.29 97.648 0)
(199.712 101.842 0)
(203.909 105.871 0)
(208.393 109.93 0)
(213.672 113.693 0)
(219.298 117.455 0)
(225.695 120.819 0)
(232.645 123.955 0)
(240.326 126.861 0)
(248.528 129.299 0)
(256.113 130.317 0)
(262.211 130.922 0)
(271.24 131.454 0)
(272.16 139.663 0)