/*--------------------------------*- C++ -*----------------------------------*\
| =========                 |                                                 |
| \\      /  F ield         | OpenFOAM: The Open Source CFD Toolbox           |
|  \\    /   O peration     | Version:  2412                                  |
|   \\  /    A nd           | Website:  www.openfoam.com                      |
|    \\/     M anipulation  |                                                 |
\*---------------------------------------------------------------------------*/
FoamFile
{
    version     2.0;
    format      ascii;
    arch        "LSB;label=32;scalar=64";
    class       volScalarField;
    location    "0.039";
    object      p;
}
// * * * * * * * * * * * * * * * * * * * * * * * * * * * * * * * * * * * * * //

dimensions      [1 -1 -2 0 0 0 0];

internalField   nonuniform List<scalar> 
9831
(
1853.32
2490.68
1847.3
2488.54
2571.91
2597.55
2622.17
2641.42
2656.93
2669.74
2680.43
2689.63
2698.02
2706.21
2714.28
2721.99
2729.22
2736.18
2743.11
2750.03
2757.04
2764.19
2771.5
2778.94
2786.48
2794.05
2801.54
2808.95
2816.38
2823.91
2831.46
2838.95
2846.42
2853.93
2861.45
2868.85
2876.04
2883.02
2889.79
2896.39
2902.88
2909.3
2915.63
2921.84
2927.9
2933.8
2939.53
2945.07
2950.4
2955.48
2960.32
2964.88
1841.09
2486.42
2570.71
2596.61
2621.43
2640.76
2656.3
2669.12
2679.83
2689.08
2697.52
2705.77
2713.89
2721.62
2728.88
2735.86
2742.79
2749.73
2756.73
2763.88
2771.19
2778.63
2786.17
2793.73
2801.22
2808.61
2816.04
2823.57
2831.13
2838.63
2846.11
2853.63
2861.14
2868.54
2875.72
2882.7
2889.47
2896.08
2902.58
2909
2915.33
2921.54
2927.6
2933.5
2939.23
2944.77
2950.1
2955.18
2960.01
2964.57
2968.84
2972.82
1835.35
2484.32
2569.5
2595.68
2620.71
2640.12
2655.69
2668.52
2679.25
2688.53
2697.04
2705.34
2713.51
2721.27
2728.54
2735.54
2742.49
2749.42
2756.43
2763.58
2770.89
2778.32
2785.86
2793.42
2800.89
2808.28
2815.71
2823.24
2830.81
2838.32
2845.8
2853.32
2860.84
2868.22
2875.41
2882.38
2889.15
2895.77
2902.28
2908.7
2915.03
2921.24
2927.3
2933.2
2938.93
2944.47
2949.79
2954.88
2959.71
2964.26
2968.53
2972.49
2976.16
2979.53
1829.52
2482.23
2568.29
2594.76
2620
2639.49
2655.09
2667.93
2678.69
2688
2696.56
2704.92
2713.13
2720.92
2728.21
2735.22
2742.18
2749.13
2756.14
2763.29
2770.59
2778.02
2785.55
2793.11
2800.57
2807.95
2815.38
2822.92
2830.49
2838.01
2845.5
2853.02
2860.53
2867.91
2875.09
2882.06
2888.84
2895.46
2901.97
2908.4
2914.74
2920.94
2927
2932.9
2938.63
2944.17
2949.49
2954.58
2959.4
2963.95
2968.21
2972.17
2975.83
2979.19
2982.24
2984.98
2987.4
2989.5
2991.27
2992.7
2993.8
2994.54
2995.01
2995.12
2994.89
2994.36
2993.53
2992.41
2991.03
2989.38
2987.49
2985.37
2983.07
2980.57
2977.91
2975.09
2972.15
2969.09
2965.94
2962.7
2959.41
2956.06
2952.68
2949.28
2945.87
2942.47
2939.07
2935.7
2932.35
2929.05
2925.79
2922.59
2919.44
2916.35
2913.33
2910.38
2907.49
2904.69
2901.95
2899.3
2896.72
2894.22
2891.79
2889.45
2887.18
2884.99
2882.87
2880.83
2878.86
2876.97
2875.14
2873.39
2871.7
2870.08
2868.52
2867.03
2865.59
2864.33
2862.97
1824.08
2480.17
2567.08
2593.85
2619.3
2638.88
2654.5
2667.36
2678.13
2687.49
2696.1
2704.51
2712.76
2720.57
2727.89
2734.92
2741.89
2748.84
2755.85
2763
2770.3
2777.73
2785.26
2792.8
2800.26
2807.63
2815.05
2822.59
2830.17
2837.7
2845.2
2852.73
2860.23
2867.6
2874.77
2881.74
2888.52
2895.15
2901.67
2908.11
2914.44
2920.64
2926.7
2932.6
2938.33
2943.86
2949.19
2954.27
2959.1
2963.65
2967.9
2971.85
2975.51
2978.86
2981.91
2984.65
2987.07
2989.16
2990.94
2992.38
2993.5
2994.25
2994.74
2994.88
2994.67
2994.17
2993.37
2992.29
2990.94
2989.33
2987.5
2985.46
2983.21
2980.78
2978.19
2975.45
2972.59
2969.62
2966.55
2963.41
2960.21
2956.96
2953.68
2950.38
2947.07
2943.77
2940.48
2937.21
2933.97
2930.78
2927.62
2924.52
2921.47
2918.49
2915.56
2912.71
2909.92
2907.21
2904.57
2902.01
2899.52
2897.1
2894.76
2892.5
2890.32
2888.2
2886.16
2884.2
2882.3
2880.48
2878.72
2877.03
2875.41
2873.85
2872.35
2870.91
2869.53
2868.34
2867.03
2866.2
2863.76
1818.6
2478.12
2565.87
2592.95
2618.62
2638.28
2653.93
2666.8
2677.59
2686.98
2695.64
2704.1
2712.39
2720.23
2727.57
2734.62
2741.6
2748.55
2755.57
2762.72
2770.01
2777.44
2784.96
2792.5
2799.94
2807.31
2814.73
2822.28
2829.86
2837.39
2844.9
2852.43
2859.93
2867.29
2874.46
2881.42
2888.21
2894.84
2901.37
2907.81
2914.14
2920.35
2926.4
2932.29
2938.02
2943.56
2948.88
2953.97
2958.8
2963.34
2967.58
2971.53
2975.18
2978.53
2981.58
2984.32
2986.74
2988.85
2990.63
2992.08
2993.23
2993.99
2994.51
2994.67
2994.49
2994.01
2993.25
2992.21
2990.91
2989.37
2987.6
2985.61
2983.44
2981.08
2978.57
2975.91
2973.14
2970.26
2967.29
2964.24
2961.14
2958
2954.82
2951.63
2948.42
2945.23
2942.04
2938.89
2935.76
2932.67
2929.62
2926.63
2923.68
2920.8
2917.98
2915.23
2912.54
2909.93
2907.38
2904.91
2902.51
2900.19
2897.94
2895.76
2893.66
2891.63
2889.66
2887.77
2885.95
2884.2
2882.51
2880.89
2879.33
2877.83
2876.4
2875.02
2873.69
2872.56
2871.31
2870.55
2868.17
1813.44
2476.09
2564.66
2592.05
2617.95
2637.7
2653.37
2666.25
2677.06
2686.48
2695.19
2703.71
2712.04
2719.9
2727.26
2734.32
2741.31
2748.27
2755.29
2762.44
2769.73
2777.16
2784.67
2792.2
2799.64
2806.99
2814.41
2821.96
2829.55
2837.09
2844.6
2852.13
2859.63
2866.98
2874.14
2881.1
2887.89
2894.54
2901.07
2907.51
2913.85
2920.04
2926.09
2931.99
2937.71
2943.25
2948.58
2953.67
2958.49
2963.03
2967.27
2971.21
2974.86
2978.21
2981.26
2984
2986.43
2988.55
2990.34
2991.81
2992.97
2993.77
2994.32
2994.5
2994.35
2993.91
2993.19
2992.19
2990.95
2989.47
2987.76
2985.85
2983.74
2981.47
2979.05
2976.48
2973.8
2971.02
2968.15
2965.21
2962.21
2959.18
2956.11
2953.03
2949.94
2946.85
2943.78
2940.74
2937.72
2934.74
2931.8
2928.91
2926.08
2923.3
2920.59
2917.94
2915.35
2912.83
2910.39
2908.01
2905.7
2903.47
2901.3
2899.21
2897.19
2895.24
2893.35
2891.54
2889.79
2888.1
2886.49
2884.93
2883.43
2882
2880.62
2879.29
2878.02
2876.96
2875.76
2875.06
2872.74
1808.27
2474.07
2563.44
2591.15
2617.29
2637.14
2652.83
2665.72
2676.54
2686
2694.76
2703.32
2711.69
2719.58
2726.95
2734.03
2741.03
2747.99
2755.01
2762.17
2769.46
2776.88
2784.39
2791.91
2799.33
2806.68
2814.1
2821.65
2829.25
2836.79
2844.31
2851.84
2859.33
2866.67
2873.82
2880.79
2887.58
2894.23
2900.77
2907.22
2913.55
2919.74
2925.79
2931.68
2937.41
2942.95
2948.27
2953.36
2958.18
2962.72
2966.96
2970.9
2974.54
2977.9
2980.95
2983.7
2986.14
2988.26
2990.08
2991.56
2992.74
2993.58
2994.15
2994.37
2994.24
2993.84
2993.17
2992.24
2991.06
2989.64
2988
2986.17
2984.15
2981.96
2979.62
2977.16
2974.57
2971.89
2969.13
2966.3
2963.41
2960.49
2957.53
2954.56
2951.59
2948.62
2945.67
2942.74
2939.83
2936.97
2934.14
2931.37
2928.65
2925.98
2923.37
2920.82
2918.34
2915.93
2913.57
2911.29
2909.08
2906.94
2904.86
2902.85
2900.92
2899.04
2897.24
2895.5
2893.82
2892.21
2890.65
2889.16
2887.73
2886.35
2885.03
2883.76
2882.53
2881.56
2880.38
2879.73
2877.46
1803.4
2472.07
2562.22
2590.26
2616.64
2636.59
2652.3
2665.2
2676.04
2685.53
2694.33
2702.94
2711.34
2719.25
2726.65
2733.74
2740.75
2747.72
2754.74
2761.9
2769.19
2776.6
2784.11
2791.62
2799.03
2806.37
2813.79
2821.34
2828.95
2836.5
2844.01
2851.54
2859.02
2866.36
2873.5
2880.47
2887.27
2893.93
2900.48
2906.92
2913.25
2919.44
2925.48
2931.37
2937.1
2942.64
2947.97
2953.06
2957.87
2962.41
2966.64
2970.58
2974.23
2977.59
2980.64
2983.4
2985.85
2987.99
2989.83
2991.33
2992.54
2993.41
2994.03
2994.27
2994.18
2993.83
2993.21
2992.34
2991.22
2989.87
2988.31
2986.56
2984.63
2982.54
2980.3
2977.93
2975.46
2972.89
2970.23
2967.52
2964.75
2961.94
2959.11
2956.26
2953.4
2950.56
2947.72
2944.91
2942.12
2939.38
2936.67
2934.01
2931.39
2928.84
2926.34
2923.9
2921.52
2919.2
2916.95
2914.76
2912.64
2910.59
2908.6
2906.68
2904.82
2903.03
2901.3
2899.63
2898.02
2896.48
2894.99
2893.56
2892.19
2890.87
2889.61
2888.4
2887.22
2886.31
2885.16
2884.57
2882.35
1798.54
2470.07
2561
2589.38
2616.02
2636.05
2651.78
2664.68
2675.54
2685.06
2693.91
2702.57
2711
2718.94
2726.35
2733.46
2740.48
2747.45
2754.48
2761.63
2768.92
2776.33
2783.83
2791.34
2798.73
2806.07
2813.48
2821.04
2828.65
2836.2
2843.72
2851.25
2858.72
2866.05
2873.19
2880.15
2886.96
2893.63
2900.18
2906.62
2912.95
2919.14
2925.17
2931.06
2936.79
2942.33
2947.66
2952.75
2957.57
2962.1
2966.33
2970.27
2973.92
2977.28
2980.35
2983.12
2985.59
2987.74
2989.6
2991.13
2992.36
2993.28
2993.91
2994.2
2994.16
2993.87
2993.31
2992.5
2991.45
2990.18
2988.71
2987.04
2985.21
2983.21
2981.08
2978.82
2976.45
2973.99
2971.46
2968.86
2966.21
2963.52
2960.81
2958.08
2955.35
2952.63
2949.92
2947.23
2944.56
2941.94
2939.35
2936.8
2934.31
2931.86
2929.47
2927.14
2924.86
2922.65
2920.5
2918.41
2916.39
2914.43
2912.53
2910.69
2908.91
2907.2
2905.55
2903.96
2902.42
2900.95
2899.53
2898.16
2896.85
2895.59
2894.39
2893.26
2892.12
2891.25
2890.14
2889.63
2887.46
1793.94
2468.08
2559.75
2588.51
2615.42
2635.53
2651.27
2664.19
2675.06
2684.61
2693.5
2702.2
2710.67
2718.63
2726.06
2733.18
2740.21
2747.19
2754.22
2761.37
2768.65
2776.06
2783.56
2791.05
2798.44
2805.76
2813.17
2820.73
2828.35
2835.91
2843.43
2850.96
2858.42
2865.74
2872.87
2879.84
2886.66
2893.33
2899.88
2906.32
2912.65
2918.83
2924.86
2930.75
2936.47
2942.02
2947.35
2952.44
2957.26
2961.78
2966.02
2969.96
2973.62
2976.98
2980.06
2982.84
2985.33
2987.51
2989.39
2990.95
2992.2
2993.17
2993.82
2994.16
2994.19
2993.94
2993.44
2992.71
2991.74
2990.55
2989.17
2987.6
2985.86
2983.97
2981.95
2979.8
2977.55
2975.21
2972.8
2970.33
2967.8
2965.25
2962.66
2960.06
2957.46
2954.87
2952.28
2949.72
2947.18
2944.67
2942.2
2939.78
2937.39
2935.06
2932.78
2930.56
2928.39
2926.28
2924.23
2922.24
2920.31
2918.44
2916.62
2914.87
2913.18
2911.55
2909.97
2908.45
2906.99
2905.58
2904.22
2902.92
2901.67
2900.47
2899.32
2898.27
2897.16
2896.32
2895.27
2894.82
2892.7
1789.36
2466.1
2558.49
2587.67
2614.84
2635.03
2650.78
2663.7
2674.59
2684.17
2693.1
2701.84
2710.34
2718.32
2725.77
2732.91
2739.95
2746.93
2753.96
2761.11
2768.39
2775.8
2783.28
2790.77
2798.15
2805.46
2812.87
2820.44
2828.05
2835.62
2843.14
2850.66
2858.12
2865.43
2872.56
2879.53
2886.35
2893.03
2899.58
2906.02
2912.34
2918.52
2924.55
2930.43
2936.16
2941.71
2947.04
2952.13
2956.94
2961.47
2965.71
2969.65
2973.31
2976.69
2979.78
2982.58
2985.09
2987.29
2989.2
2990.79
2992.07
2993.09
2993.76
2994.16
2994.25
2994.06
2993.64
2992.98
2992.1
2991
2989.71
2988.24
2986.61
2984.83
2982.92
2980.89
2978.76
2976.55
2974.26
2971.91
2969.52
2967.09
2964.64
2962.17
2959.7
2957.23
2954.78
2952.34
2949.93
2947.55
2945.2
2942.9
2940.64
2938.42
2936.26
2934.15
2932.08
2930.08
2928.13
2926.24
2924.4
2922.62
2920.9
2919.24
2917.63
2916.07
2914.58
2913.13
2911.74
2910.4
2909.11
2907.87
2906.68
2905.54
2904.45
2903.47
2902.41
2901.59
2900.6
2900.21
2898.14
1785.02
2464.12
2557.23
2586.86
2614.29
2634.53
2650.3
2663.22
2674.13
2683.73
2692.71
2701.49
2710.02
2718.02
2725.49
2732.64
2739.69
2746.68
2753.71
2760.86
2768.14
2775.53
2783.02
2790.49
2797.86
2805.16
2812.57
2820.14
2827.76
2835.33
2842.86
2850.37
2857.82
2865.12
2872.24
2879.22
2886.04
2892.73
2899.28
2905.72
2912.04
2918.21
2924.23
2930.12
2935.84
2941.39
2946.73
2951.82
2956.63
2961.16
2965.4
2969.35
2973.02
2976.41
2979.51
2982.33
2984.86
2987.09
2989.03
2990.65
2991.97
2993.02
2993.73
2994.2
2994.36
2994.23
2993.89
2993.31
2992.51
2991.51
2990.32
2988.96
2987.44
2985.77
2983.98
2982.08
2980.08
2978
2975.84
2973.63
2971.37
2969.08
2966.76
2964.43
2962.09
2959.76
2957.44
2955.14
2952.85
2950.6
2948.38
2946.2
2944.05
2941.96
2939.91
2937.9
2935.95
2934.05
2932.2
2930.41
2928.67
2926.98
2925.35
2923.77
2922.24
2920.76
2919.34
2917.97
2916.65
2915.38
2914.15
2912.97
2911.84
2910.76
2909.71
2908.8
2907.78
2907
2906.07
2905.74
2903.71
1780.72
2462.14
2555.98
2586.07
2613.75
2634.05
2649.83
2662.76
2673.68
2683.31
2692.32
2701.15
2709.71
2717.73
2725.21
2732.38
2739.43
2746.42
2753.46
2760.61
2767.88
2775.27
2782.75
2790.22
2797.57
2804.87
2812.27
2819.84
2827.47
2835.04
2842.57
2850.08
2857.52
2864.81
2871.93
2878.91
2885.74
2892.42
2898.98
2905.42
2911.73
2917.89
2923.92
2929.8
2935.53
2941.08
2946.41
2951.5
2956.32
2960.85
2965.09
2969.04
2972.72
2976.13
2979.25
2982.09
2984.65
2986.9
2988.87
2990.53
2991.89
2992.98
2993.74
2994.27
2994.5
2994.46
2994.19
2993.69
2992.99
2992.1
2991.01
2989.76
2988.36
2986.81
2985.15
2983.37
2981.5
2979.55
2977.53
2975.46
2973.34
2971.18
2969
2966.81
2964.61
2962.42
2960.23
2958.06
2955.91
2953.79
2951.69
2949.64
2947.62
2945.64
2943.71
2941.82
2939.98
2938.18
2936.44
2934.74
2933.1
2931.51
2929.96
2928.47
2927.03
2925.64
2924.29
2923
2921.75
2920.54
2919.39
2918.27
2917.2
2916.18
2915.19
2914.33
2913.37
2912.63
2911.75
2911.48
2909.52
1776.62
2460.16
2554.75
2585.31
2613.23
2633.58
2649.37
2662.31
2673.23
2682.9
2691.95
2700.81
2709.4
2717.44
2724.94
2732.12
2739.18
2746.18
2753.21
2760.36
2767.63
2775.02
2782.49
2789.94
2797.28
2804.57
2811.98
2819.55
2827.18
2834.76
2842.28
2849.79
2857.22
2864.5
2871.62
2878.6
2885.43
2892.12
2898.68
2905.11
2911.42
2917.58
2923.6
2929.48
2935.21
2940.76
2946.1
2951.19
2956
2960.53
2964.78
2968.74
2972.44
2975.85
2979
2981.86
2984.44
2986.73
2988.73
2990.43
2991.83
2992.96
2993.78
2994.37
2994.68
2994.73
2994.53
2994.13
2993.53
2992.74
2991.77
2990.63
2989.35
2987.93
2986.4
2984.76
2983.03
2981.22
2979.34
2977.41
2975.43
2973.42
2971.39
2969.34
2967.28
2965.23
2963.18
2961.15
2959.13
2957.14
2955.18
2953.25
2951.35
2949.5
2947.68
2945.9
2944.17
2942.48
2940.84
2939.25
2937.7
2936.2
2934.75
2933.34
2931.98
2930.67
2929.4
2928.17
2926.99
2925.86
2924.76
2923.71
2922.7
2921.73
2920.79
2919.99
2919.08
2918.38
2917.56
2917.34
2915.42
1772.57
2458.2
2553.56
2584.58
2612.71
2633.12
2648.92
2661.86
2672.8
2682.49
2691.58
2700.48
2709.09
2717.15
2724.67
2731.86
2738.94
2745.93
2752.97
2760.12
2767.39
2774.77
2782.23
2789.67
2797
2804.28
2811.69
2819.27
2826.9
2834.48
2842
2849.5
2856.92
2864.19
2871.31
2878.29
2885.13
2891.82
2898.37
2904.8
2911.1
2917.26
2923.28
2929.16
2934.89
2940.44
2945.78
2950.87
2955.69
2960.22
2964.47
2968.45
2972.15
2975.59
2978.75
2981.64
2984.25
2986.57
2988.61
2990.35
2991.8
2992.97
2993.86
2994.51
2994.91
2995.04
2994.93
2994.64
2994.14
2993.46
2992.6
2991.59
2990.44
2989.15
2987.75
2986.25
2984.66
2982.99
2981.25
2979.47
2977.64
2975.77
2973.88
2971.98
2970.07
2968.16
2966.25
2964.36
2962.48
2960.63
2958.8
2957
2955.22
2953.49
2951.79
2950.13
2948.51
2946.94
2945.4
2943.91
2942.46
2941.06
2939.7
2938.38
2937.1
2935.87
2934.68
2933.54
2932.43
2931.37
2930.34
2929.35
2928.4
2927.49
2926.61
2925.87
2925.01
2924.35
2923.59
2923.43
2921.56
1768.71
2456.24
2552.39
2583.85
2612.22
2632.68
2648.48
2661.43
2672.38
2682.09
2691.21
2700.15
2708.79
2716.87
2724.4
2731.61
2738.69
2745.69
2752.74
2759.88
2767.14
2774.52
2781.97
2789.41
2796.72
2804
2811.4
2818.98
2826.62
2834.19
2841.71
2849.2
2856.62
2863.88
2871
2877.98
2884.82
2891.51
2898.07
2904.49
2910.79
2916.94
2922.95
2928.83
2934.57
2940.13
2945.47
2950.56
2955.37
2959.91
2964.17
2968.15
2971.87
2975.33
2978.52
2981.43
2984.07
2986.43
2988.5
2990.28
2991.78
2993.01
2993.96
2994.69
2995.16
2995.39
2995.39
2995.18
2994.8
2994.23
2993.5
2992.61
2991.59
2990.44
2989.18
2987.83
2986.38
2984.86
2983.28
2981.65
2979.97
2978.26
2976.52
2974.77
2973.01
2971.24
2969.48
2967.73
2965.99
2964.27
2962.58
2960.91
2959.26
2957.65
2956.07
2954.53
2953.02
2951.56
2950.13
2948.74
2947.38
2946.07
2944.8
2943.57
2942.38
2941.23
2940.12
2939.05
2938.01
2937.01
2936.05
2935.12
2934.24
2933.38
2932.55
2931.87
2931.05
2930.44
2929.72
2929.58
2927.79
1764.89
2454.29
2551.24
2583.15
2611.73
2632.24
2648.05
2661.01
2671.97
2681.7
2690.86
2699.83
2708.5
2716.59
2724.14
2731.36
2738.45
2745.46
2752.5
2759.64
2766.9
2774.28
2781.72
2789.14
2796.45
2803.71
2811.11
2818.7
2826.34
2833.91
2841.43
2848.91
2856.32
2863.58
2870.69
2877.68
2884.52
2891.21
2897.76
2904.18
2910.47
2916.62
2922.63
2928.51
2934.25
2939.81
2945.15
2950.24
2955.06
2959.6
2963.86
2967.86
2971.6
2975.07
2978.29
2981.23
2983.9
2986.29
2988.4
2990.23
2991.79
2993.07
2994.11
2994.9
2995.46
2995.8
2995.9
2995.79
2995.52
2995.08
2994.47
2993.72
2992.84
2991.83
2990.71
2989.5
2988.21
2986.84
2985.41
2983.93
2982.4
2980.85
2979.26
2977.66
2976.05
2974.44
2972.82
2971.22
2969.62
2968.04
2966.48
2964.94
2963.43
2961.95
2960.49
2959.07
2957.68
2956.32
2955
2953.71
2952.46
2951.25
2950.07
2948.93
2947.83
2946.76
2945.73
2944.74
2943.77
2942.85
2941.96
2941.1
2940.27
2939.47
2938.7
2938.08
2937.31
2936.76
2936.08
2935.96
2934.28
1761.25
2452.35
2550.1
2582.45
2611.26
2631.82
2647.64
2660.59
2671.56
2681.32
2690.51
2699.51
2708.21
2716.32
2723.88
2731.11
2738.21
2745.22
2752.27
2759.41
2766.67
2774.03
2781.47
2788.88
2796.17
2803.43
2810.83
2818.42
2826.06
2833.63
2841.14
2848.62
2856.02
2863.27
2870.38
2877.37
2884.21
2890.9
2897.45
2903.86
2910.15
2916.29
2922.3
2928.19
2933.92
2939.48
2944.83
2949.92
2954.74
2959.28
2963.56
2967.57
2971.33
2974.83
2978.07
2981.04
2983.74
2986.17
2988.32
2990.21
2991.81
2993.16
2994.27
2995.15
2995.8
2996.23
2996.45
2996.46
2996.3
2995.98
2995.5
2994.89
2994.15
2993.29
2992.32
2991.26
2990.13
2988.92
2987.65
2986.33
2984.96
2983.57
2982.14
2980.7
2979.24
2977.78
2976.32
2974.86
2973.41
2971.97
2970.55
2969.14
2967.76
2966.4
2965.07
2963.77
2962.49
2961.24
2960.03
2958.85
2957.7
2956.58
2955.5
2954.44
2953.43
2952.44
2951.49
2950.57
2949.68
2948.82
2947.99
2947.2
2946.44
2945.69
2944.97
2944.42
2943.69
2943.19
2942.55
2942.45
2940.86
1757.65
2450.41
2548.96
2581.77
2610.8
2631.4
2647.23
2660.19
2671.17
2680.95
2690.17
2699.2
2707.92
2716.05
2723.62
2730.87
2737.98
2744.99
2752.04
2759.18
2766.43
2773.79
2781.22
2788.62
2795.9
2803.15
2810.55
2818.14
2825.78
2833.35
2840.86
2848.33
2855.72
2862.97
2870.08
2877.06
2883.9
2890.59
2897.13
2903.55
2909.83
2915.97
2921.98
2927.86
2933.6
2939.16
2944.5
2949.6
2954.42
2958.97
2963.26
2967.29
2971.06
2974.58
2977.85
2980.86
2983.6
2986.06
2988.26
2990.19
2991.87
2993.29
2994.47
2995.44
2996.18
2996.71
2997.05
2997.19
2997.14
2996.95
2996.61
2996.14
2995.54
2994.83
2994.02
2993.12
2992.14
2991.09
2989.98
2988.82
2987.62
2986.38
2985.12
2983.83
2982.53
2981.23
2979.92
2978.61
2977.3
2976.01
2974.73
2973.46
2972.21
2970.98
2969.78
2968.59
2967.44
2966.31
2965.2
2964.13
2963.08
2962.06
2961.07
2960.11
2959.18
2958.28
2957.41
2956.57
2955.76
2954.98
2954.22
2953.49
2952.8
2952.12
2951.46
2950.97
2950.29
2949.84
2949.26
2949.18
2947.71
1754.21
2448.48
2547.82
2581.1
2610.35
2631
2646.83
2659.79
2670.78
2680.58
2689.83
2698.9
2707.64
2715.78
2723.37
2730.63
2737.75
2744.77
2751.81
2758.96
2766.2
2773.56
2780.98
2788.36
2795.63
2802.88
2810.27
2817.86
2825.5
2833.07
2840.58
2848.04
2855.42
2862.66
2869.77
2876.75
2883.59
2890.28
2896.82
2903.23
2909.5
2915.64
2921.65
2927.53
2933.27
2938.84
2944.18
2949.27
2954.1
2958.66
2962.96
2967
2970.8
2974.35
2977.64
2980.68
2983.46
2985.96
2988.21
2990.2
2991.94
2993.43
2994.7
2995.76
2996.6
2997.23
2997.68
2997.95
2998.04
2997.97
2997.77
2997.45
2997
2996.45
2995.79
2995.06
2994.24
2993.36
2992.42
2991.42
2990.39
2989.32
2988.22
2987.1
2985.97
2984.82
2983.66
2982.51
2981.35
2980.2
2979.06
2977.93
2976.82
2975.72
2974.64
2973.58
2972.54
2971.52
2970.53
2969.56
2968.61
2967.69
2966.8
2965.93
2965.09
2964.27
2963.48
2962.72
2961.98
2961.26
2960.57
2959.91
2959.27
2958.67
2958.06
2957.63
2956.98
2956.57
2956.03
2955.97
2954.59
1750.83
2446.54
2546.69
2580.44
2609.91
2630.6
2646.44
2659.4
2670.4
2680.22
2689.51
2698.6
2707.36
2715.52
2723.12
2730.39
2737.52
2744.54
2751.59
2758.73
2765.98
2773.32
2780.74
2788.11
2795.37
2802.6
2810
2817.59
2825.23
2832.8
2840.29
2847.75
2855.12
2862.36
2869.46
2876.44
2883.28
2889.96
2896.5
2902.9
2909.18
2915.31
2921.32
2927.2
2932.95
2938.51
2943.85
2948.95
2953.78
2958.35
2962.66
2966.72
2970.54
2974.11
2977.44
2980.51
2983.32
2985.88
2988.17
2990.23
2992.03
2993.6
2994.96
2996.11
2997.05
2997.8
2998.36
2998.76
2998.99
2999.07
2999.01
2998.83
2998.54
2998.15
2997.66
2997.08
2996.43
2995.72
2994.94
2994.12
2993.25
2992.35
2991.42
2990.46
2989.48
2988.5
2987.5
2986.5
2985.5
2984.5
2983.5
2982.51
2981.54
2980.57
2979.62
2978.68
2977.77
2976.87
2975.98
2975.12
2974.28
2973.47
2972.67
2971.9
2971.14
2970.41
2969.71
2969.02
2968.36
2967.72
2967.1
2966.51
2965.94
2965.41
2964.86
2964.47
2963.88
2963.52
2963.03
2962.99
2961.72
1747.58
2444.59
2545.55
2579.79
2609.48
2630.22
2646.06
2659.03
2670.03
2679.87
2689.18
2698.31
2707.09
2715.26
2722.88
2730.16
2737.29
2744.32
2751.37
2758.51
2765.75
2773.09
2780.49
2787.86
2795.1
2802.33
2809.73
2817.32
2824.95
2832.52
2840.01
2847.46
2854.82
2862.05
2869.15
2876.13
2882.97
2889.64
2896.18
2902.58
2908.85
2914.98
2920.99
2926.88
2932.62
2938.18
2943.53
2948.62
2953.46
2958.03
2962.36
2966.44
2970.28
2973.88
2977.24
2980.35
2983.2
2985.8
2988.15
2990.27
2992.14
2993.8
2995.24
2996.49
2997.54
2998.4
2999.08
2999.61
2999.98
3000.2
3000.3
3000.27
3000.13
2999.9
2999.58
2999.18
2998.7
2998.16
2997.56
2996.91
2996.22
2995.5
2994.74
2993.95
2993.14
2992.32
2991.48
2990.64
2989.79
2988.94
2988.09
2987.24
2986.4
2985.57
2984.75
2983.94
2983.14
2982.36
2981.59
2980.84
2980.1
2979.38
2978.68
2978
2977.34
2976.7
2976.07
2975.47
2974.88
2974.31
2973.76
2973.23
2972.72
2972.28
2971.77
2971.43
2970.89
2970.59
2970.14
2970.11
2968.95
1744.39
2442.64
2544.41
2579.15
2609.06
2629.84
2645.69
2658.66
2669.67
2679.53
2688.87
2698.02
2706.82
2715.01
2722.64
2729.93
2737.07
2744.1
2751.15
2758.29
2765.52
2772.86
2780.25
2787.6
2794.83
2802.06
2809.45
2817.04
2824.68
2832.24
2839.73
2847.17
2854.53
2861.75
2868.84
2875.82
2882.65
2889.32
2895.86
2902.25
2908.52
2914.65
2920.66
2926.55
2932.29
2937.85
2943.2
2948.29
2953.13
2957.72
2962.06
2966.16
2970.03
2973.66
2977.05
2980.19
2983.08
2985.73
2988.14
2990.32
2992.28
2994.02
2995.56
2996.91
2998.07
2999.04
2999.85
3000.51
3001.02
3001.4
3001.65
3001.79
3001.81
3001.74
3001.59
3001.36
3001.06
3000.69
3000.27
2999.79
2999.27
2998.72
2998.13
2997.51
2996.88
2996.22
2995.55
2994.86
2994.17
2993.47
2992.77
2992.07
2991.37
2990.68
2989.99
2989.3
2988.63
2987.97
2987.32
2986.67
2986.05
2985.43
2984.83
2984.25
2983.68
2983.12
2982.58
2982.06
2981.55
2981.05
2980.58
2980.12
2979.68
2979.31
2978.86
2978.55
2978.09
2977.84
2977.43
2977.43
2976.38
1741.33
2440.68
2543.28
2578.53
2608.65
2629.47
2645.33
2658.29
2669.31
2679.19
2688.56
2697.73
2706.55
2714.76
2722.4
2729.7
2736.85
2743.88
2750.94
2758.07
2765.3
2772.63
2780.01
2787.35
2794.57
2801.79
2809.18
2816.77
2824.41
2831.96
2839.45
2846.88
2854.23
2861.44
2868.53
2875.5
2882.33
2889
2895.53
2901.93
2908.19
2914.32
2920.33
2926.21
2931.96
2937.52
2942.86
2947.96
2952.81
2957.41
2961.76
2965.89
2969.78
2973.43
2976.86
2980.04
2982.97
2985.68
2988.15
2990.4
2992.43
2994.26
2995.89
2997.35
2998.62
2999.71
3000.66
3001.45
3002.11
3002.63
3003.04
3003.34
3003.53
3003.64
3003.66
3003.6
3003.48
3003.29
3003.06
3002.77
3002.43
3002.06
3001.65
3001.21
3000.74
3000.25
2999.75
2999.23
2998.69
2998.15
2997.6
2997.04
2996.48
2995.92
2995.37
2994.81
2994.26
2993.72
2993.18
2992.65
2992.13
2991.62
2991.12
2990.63
2990.15
2989.68
2989.22
2988.78
2988.35
2987.93
2987.52
2987.13
2986.75
2986.47
2986.06
2985.79
2985.4
2985.21
2984.84
2984.84
2983.91
1738.34
2438.72
2542.14
2577.91
2608.25
2629.11
2644.97
2657.94
2668.96
2678.86
2688.25
2697.45
2706.29
2714.51
2722.16
2729.48
2736.63
2743.67
2750.72
2757.86
2765.08
2772.4
2779.78
2787.1
2794.31
2801.52
2808.91
2816.5
2824.14
2831.69
2839.17
2846.59
2853.93
2861.14
2868.22
2875.18
2882.01
2888.68
2895.2
2901.6
2907.86
2913.99
2919.99
2925.88
2931.63
2937.19
2942.53
2947.63
2952.48
2957.09
2961.46
2965.61
2969.53
2973.21
2976.67
2979.89
2982.87
2985.63
2988.16
2990.49
2992.6
2994.52
2996.25
2997.82
2999.2
3000.43
3001.5
3002.44
3003.24
3003.93
3004.5
3004.96
3005.33
3005.61
3005.81
3005.93
3005.99
3005.99
3005.92
3005.81
3005.65
3005.46
3005.23
3004.96
3004.67
3004.35
3004.01
3003.65
3003.28
3002.89
3002.5
3002.09
3001.68
3001.26
3000.84
3000.42
2999.99
2999.57
2999.15
2998.74
2998.33
2997.92
2997.52
2997.13
2996.74
2996.37
2996
2995.64
2995.28
2994.94
2994.61
2994.28
2993.97
2993.77
2993.41
2993.19
2992.86
2992.72
2992.39
2992.42
2991.6
1735.45
2436.75
2541.01
2577.31
2607.86
2628.76
2644.62
2657.59
2668.62
2678.53
2687.95
2697.18
2706.03
2714.26
2721.93
2729.26
2736.42
2743.46
2750.51
2757.64
2764.86
2772.18
2779.54
2786.85
2794.05
2801.25
2808.64
2816.24
2823.87
2831.41
2838.88
2846.31
2853.63
2860.83
2867.91
2874.87
2881.69
2888.35
2894.88
2901.27
2907.53
2913.65
2919.66
2925.55
2931.29
2936.85
2942.19
2947.29
2952.15
2956.77
2961.17
2965.33
2969.28
2973
2976.49
2979.74
2982.78
2985.59
2988.19
2990.59
2992.78
2994.79
2996.63
2998.31
2999.81
3001.17
3002.38
3003.46
3004.42
3005.26
3005.99
3006.62
3007.16
3007.62
3008
3008.31
3008.55
3008.74
3008.87
3008.94
3008.98
3008.97
3008.92
3008.84
3008.72
3008.58
3008.41
3008.22
3008.01
3007.78
3007.54
3007.28
3007.01
3006.73
3006.45
3006.15
3005.86
3005.56
3005.26
3004.96
3004.65
3004.35
3004.06
3003.76
3003.47
3003.18
3002.9
3002.62
3002.34
3002.08
3001.82
3001.57
3001.32
3001.18
3000.88
3000.71
3000.44
3000.33
3000.06
3000.12
2999.4
1732.61
2434.76
2539.88
2576.72
2607.48
2628.42
2644.28
2657.25
2668.29
2678.21
2687.65
2696.91
2705.78
2714.02
2721.7
2729.04
2736.2
2743.25
2750.3
2757.43
2764.65
2771.96
2779.31
2786.61
2793.79
2800.99
2808.38
2815.97
2823.6
2831.14
2838.6
2846.02
2853.33
2860.52
2867.59
2874.54
2881.36
2888.02
2894.55
2900.94
2907.19
2913.32
2919.32
2925.21
2930.95
2936.51
2941.85
2946.95
2951.82
2956.45
2960.87
2965.06
2969.03
2972.78
2976.3
2979.6
2982.69
2985.56
2988.23
2990.7
2992.99
2995.09
2997.04
2998.83
3000.46
3001.94
3003.29
3004.52
3005.63
3006.64
3007.54
3008.34
3009.07
3009.7
3010.27
3010.76
3011.19
3011.56
3011.88
3012.14
3012.36
3012.53
3012.66
3012.76
3012.82
3012.85
3012.86
3012.83
3012.79
3012.72
3012.63
3012.53
3012.41
3012.28
3012.13
3011.98
3011.81
3011.64
3011.46
3011.28
3011.09
3010.89
3010.7
3010.5
3010.31
3010.11
3009.91
3009.72
3009.53
3009.34
3009.15
3008.97
3008.78
3008.71
3008.47
3008.35
3008.14
3008.07
3007.87
3007.95
3007.34
1729.89
2432.77
2538.74
2576.14
2607.11
2628.08
2643.95
2656.92
2667.96
2677.9
2687.36
2696.64
2705.53
2713.78
2721.47
2728.82
2735.99
2743.04
2750.1
2757.22
2764.43
2771.73
2779.08
2786.36
2793.53
2800.72
2808.11
2815.7
2823.33
2830.86
2838.32
2845.73
2853.03
2860.21
2867.27
2874.22
2881.03
2887.69
2894.21
2900.6
2906.86
2912.98
2918.98
2924.87
2930.61
2936.16
2941.5
2946.61
2951.48
2956.13
2960.56
2964.78
2968.78
2972.56
2976.12
2979.47
2982.6
2985.53
2988.27
2990.83
2993.2
2995.4
2997.46
2999.36
3001.12
3002.73
3004.23
3005.61
3006.88
3008.05
3009.11
3010.1
3010.99
3011.81
3012.57
3013.25
3013.87
3014.44
3014.95
3015.41
3015.82
3016.19
3016.51
3016.79
3017.04
3017.25
3017.43
3017.58
3017.7
3017.79
3017.86
3017.91
3017.94
3017.95
3017.94
3017.92
3017.89
3017.84
3017.78
3017.71
3017.63
3017.55
3017.46
3017.36
3017.26
3017.16
3017.05
3016.94
3016.83
3016.72
3016.61
3016.5
3016.39
3016.38
3016.2
3016.15
3015.98
3015.95
3015.82
3015.93
3015.43
1727.22
2430.77
2537.62
2575.57
2606.75
2627.75
2643.63
2656.59
2667.63
2677.59
2687.08
2696.38
2705.28
2713.55
2721.25
2728.6
2735.78
2742.83
2749.89
2757.02
2764.22
2771.51
2778.85
2786.12
2793.27
2800.46
2807.85
2815.44
2823.06
2830.58
2838.04
2845.43
2852.73
2859.9
2866.95
2873.9
2880.7
2887.36
2893.88
2900.27
2906.52
2912.64
2918.64
2924.53
2930.26
2935.81
2941.15
2946.26
2951.15
2955.81
2960.26
2964.5
2968.53
2972.34
2975.94
2979.33
2982.52
2985.52
2988.33
2990.97
2993.43
2995.73
2997.9
2999.92
3001.81
3003.56
3005.2
3006.74
3008.17
3009.5
3010.74
3011.91
3012.99
3014
3014.94
3015.82
3016.63
3017.38
3018.08
3018.73
3019.33
3019.88
3020.39
3020.85
3021.28
3021.67
3022.03
3022.35
3022.64
3022.9
3023.13
3023.34
3023.52
3023.68
3023.82
3023.94
3024.04
3024.12
3024.19
3024.24
3024.28
3024.31
3024.32
3024.33
3024.33
3024.32
3024.3
3024.28
3024.25
3024.22
3024.18
3024.15
3024.1
3024.14
3024.03
3024.04
3023.92
3023.92
3023.87
3024.01
3023.62
1724.63
2428.76
2536.5
2575.01
2606.4
2627.43
2643.31
2656.27
2667.32
2677.28
2686.8
2696.12
2705.04
2713.31
2721.03
2728.39
2735.58
2742.63
2749.69
2756.81
2764.01
2771.3
2778.62
2785.87
2793.02
2800.2
2807.58
2815.17
2822.79
2830.31
2837.75
2845.14
2852.43
2859.59
2866.63
2873.57
2880.37
2887.03
2893.55
2899.93
2906.18
2912.3
2918.3
2924.18
2929.91
2935.46
2940.79
2945.91
2950.8
2955.48
2959.96
2964.22
2968.28
2972.12
2975.76
2979.2
2982.44
2985.5
2988.39
2991.11
2993.67
2996.07
2998.35
3000.5
3002.51
3004.4
3006.19
3007.88
3009.47
3010.98
3012.39
3013.73
3015
3016.19
3017.32
3018.39
3019.4
3020.36
3021.26
3022.11
3022.91
3023.66
3024.37
3025.03
3025.64
3026.22
3026.75
3027.25
3027.71
3028.14
3028.53
3028.9
3029.23
3029.54
3029.82
3030.07
3030.3
3030.51
3030.7
3030.88
3031.03
3031.17
3031.29
3031.4
3031.5
3031.58
3031.66
3031.72
3031.78
3031.83
3031.87
3031.92
3031.95
3032.06
3032
3032.06
3032
3032.05
3032.07
3032.22
3031.97
1722.13
2426.73
2535.38
2574.46
2606.05
2627.11
2643
2655.96
2667.01
2676.99
2686.52
2695.86
2704.79
2713.08
2720.81
2728.18
2735.37
2742.43
2749.49
2756.61
2763.8
2771.08
2778.39
2785.63
2792.77
2799.94
2807.32
2814.91
2822.52
2830.03
2837.47
2844.85
2852.12
2859.27
2866.31
2873.24
2880.04
2886.7
2893.21
2899.59
2905.84
2911.95
2917.95
2923.83
2929.56
2935.1
2940.43
2945.55
2950.46
2955.16
2959.65
2963.94
2968.02
2971.9
2975.58
2979.07
2982.37
2985.49
2988.46
2991.26
2993.92
2996.43
2998.82
3001.09
3003.24
3005.27
3007.21
3009.06
3010.81
3012.49
3014.08
3015.61
3017.07
3018.46
3019.78
3021.05
3022.25
3023.4
3024.49
3025.53
3026.52
3027.46
3028.35
3029.2
3030
3030.76
3031.48
3032.15
3032.79
3033.39
3033.95
3034.48
3034.97
3035.43
3035.86
3036.26
3036.63
3036.98
3037.3
3037.6
3037.87
3038.13
3038.36
3038.58
3038.78
3038.96
3039.13
3039.28
3039.42
3039.55
3039.67
3039.81
3039.9
3040.07
3040.07
3040.19
3040.19
3040.26
3040.35
3040.51
3040.38
1719.68
2424.69
2534.27
2573.93
2605.71
2626.81
2642.69
2655.65
2666.7
2676.69
2686.25
2695.61
2704.56
2712.85
2720.59
2727.97
2735.17
2742.23
2749.29
2756.41
2763.6
2770.87
2778.17
2785.39
2792.52
2799.68
2807.06
2814.64
2822.25
2829.76